PSF

       3 !TITLE
 REMARKS C60 fullerene
 REMARKS Generated with Polymatic
 REMARKS To be used with coordinates file in VMD

      60 !NATOM
       1 MOL  1    MOL  C    1      0.000000       12.0112           0
       2 MOL  1    MOL  C    1      0.000000       12.0112           0
       3 MOL  1    MOL  C    1      0.000000       12.0112           0
       4 MOL  1    MOL  C    1      0.000000       12.0112           0
       5 MOL  1    MOL  C    1      0.000000       12.0112           0
       6 MOL  1    MOL  C    1      0.000000       12.0112           0
       7 MOL  1    MOL  C    1      0.000000       12.0112           0
       8 MOL  1    MOL  C    1      0.000000       12.0112           0
       9 MOL  1    MOL  C    1      0.000000       12.0112           0
      10 MOL  1    MOL  C    1      0.000000       12.0112           0
      11 MOL  1    MOL  C    1      0.000000       12.0112           0
      12 MOL  1    MOL  C    1      0.000000       12.0112           0
      13 MOL  1    MOL  C    1      0.000000       12.0112           0
      14 MOL  1    MOL  C    1      0.000000       12.0112           0
      15 MOL  1    MOL  C    1      0.000000       12.0112           0
      16 MOL  1    MOL  C    1      0.000000       12.0112           0
      17 MOL  1    MOL  C    1      0.000000       12.0112           0
      18 MOL  1    MOL  C    1      0.000000       12.0112           0
      19 MOL  1    MOL  C    1      0.000000       12.0112           0
      20 MOL  1    MOL  C    1      0.000000       12.0112           0
      21 MOL  1    MOL  C    1      0.000000       12.0112           0
      22 MOL  1    MOL  C    1      0.000000       12.0112           0
      23 MOL  1    MOL  C    1      0.000000       12.0112           0
      24 MOL  1    MOL  C    1      0.000000       12.0112           0
      25 MOL  1    MOL  C    1      0.000000       12.0112           0
      26 MOL  1    MOL  C    1      0.000000       12.0112           0
      27 MOL  1    MOL  C    1      0.000000       12.0112           0
      28 MOL  1    MOL  C    1      0.000000       12.0112           0
      29 MOL  1    MOL  C    1      0.000000       12.0112           0
      30 MOL  1    MOL  C    1      0.000000       12.0112           0
      31 MOL  1    MOL  C    1      0.000000       12.0112           0
      32 MOL  1    MOL  C    1      0.000000       12.0112           0
      33 MOL  1    MOL  C    1      0.000000       12.0112           0
      34 MOL  1    MOL  C    1      0.000000       12.0112           0
      35 MOL  1    MOL  C    1      0.000000       12.0112           0
      36 MOL  1    MOL  C    1      0.000000       12.0112           0
      37 MOL  1    MOL  C    1      0.000000       12.0112           0
      38 MOL  1    MOL  C    1      0.000000       12.0112           0
      39 MOL  1    MOL  C    1      0.000000       12.0112           0
      40 MOL  1    MOL  C    1      0.000000       12.0112           0
      41 MOL  1    MOL  C    1      0.000000       12.0112           0
      42 MOL  1    MOL  C    1      0.000000       12.0112           0
      43 MOL  1    MOL  C    1      0.000000       12.0112           0
      44 MOL  1    MOL  C    1      0.000000       12.0112           0
      45 MOL  1    MOL  C    1      0.000000       12.0112           0
      46 MOL  1    MOL  C    1      0.000000       12.0112           0
      47 MOL  1    MOL  C    1      0.000000       12.0112           0
      48 MOL  1    MOL  C    1      0.000000       12.0112           0
      49 MOL  1    MOL  C    1      0.000000       12.0112           0
      50 MOL  1    MOL  C    1      0.000000       12.0112           0
      51 MOL  1    MOL  C    1      0.000000       12.0112           0
      52 MOL  1    MOL  C    1      0.000000       12.0112           0
      53 MOL  1    MOL  C    1      0.000000       12.0112           0
      54 MOL  1    MOL  C    1      0.000000       12.0112           0
      55 MOL  1    MOL  C    1      0.000000       12.0112           0
      56 MOL  1    MOL  C    1      0.000000       12.0112           0
      57 MOL  1    MOL  C    1      0.000000       12.0112           0
      58 MOL  1    MOL  C    1      0.000000       12.0112           0
      59 MOL  1    MOL  C    1      0.000000       12.0112           0
      60 MOL  1    MOL  C    1      0.000000       12.0112           0

      90 !NBOND: bonds
       1       2       1       5       1       7       2       3
       2       8       3       4       3       9       4       5
       4      10       5       6       6      17       6      16
       7      18       7      19       8      11       8      20
       9      12       9      13      10      14      10      15
      11      12      11      24      12      25      13      14
      13      26      14      27      15      16      15      28
      16      29      17      18      17      30      18      22
      19      20      19      21      20      23      21      22
      21      31      22      39      23      24      23      32
      24      33      25      26      25      34      26      35
      27      28      27      36      28      38      29      30
      29      37      30      40      31      32      31      44
      32      41      33      34      33      42      34      49
      35      36      35      50      36      48      37      38
      37      46      38      47      39      40      39      43
      40      45      41      51      41      42      42      55
      43      44      43      52      44      51      45      46
      45      52      46      53      47      48      47      53
      48      54      49      50      49      55      50      54
      51      59      52      60      53      56      54      57
      55      58      56      60      56      57      57      58
      58      59      59      60
