PSF

       3 !TITLE
 REMARKS Random packing of 6 x 'c60.lmps', 40 x 'pc_monomer.lmps'
 REMARKS Generated with Polymatic
 REMARKS To be used with coordinates file in VMD

    1680 !NATOM
       1 MOL  1    MOL  C    1      0.000000       12.0112           0
       2 MOL  1    MOL  C    1      0.000000       12.0112           0
       3 MOL  1    MOL  C    1      0.000000       12.0112           0
       4 MOL  1    MOL  C    1      0.000000       12.0112           0
       5 MOL  1    MOL  C    1      0.000000       12.0112           0
       6 MOL  1    MOL  C    1      0.000000       12.0112           0
       7 MOL  1    MOL  C    1      0.000000       12.0112           0
       8 MOL  1    MOL  C    1      0.000000       12.0112           0
       9 MOL  1    MOL  C    1      0.000000       12.0112           0
      10 MOL  1    MOL  C    1      0.000000       12.0112           0
      11 MOL  1    MOL  C    1      0.000000       12.0112           0
      12 MOL  1    MOL  C    1      0.000000       12.0112           0
      13 MOL  1    MOL  C    1      0.000000       12.0112           0
      14 MOL  1    MOL  C    1      0.000000       12.0112           0
      15 MOL  1    MOL  C    1      0.000000       12.0112           0
      16 MOL  1    MOL  C    1      0.000000       12.0112           0
      17 MOL  1    MOL  C    1      0.000000       12.0112           0
      18 MOL  1    MOL  C    1      0.000000       12.0112           0
      19 MOL  1    MOL  C    1      0.000000       12.0112           0
      20 MOL  1    MOL  C    1      0.000000       12.0112           0
      21 MOL  1    MOL  C    1      0.000000       12.0112           0
      22 MOL  1    MOL  C    1      0.000000       12.0112           0
      23 MOL  1    MOL  C    1      0.000000       12.0112           0
      24 MOL  1    MOL  C    1      0.000000       12.0112           0
      25 MOL  1    MOL  C    1      0.000000       12.0112           0
      26 MOL  1    MOL  C    1      0.000000       12.0112           0
      27 MOL  1    MOL  C    1      0.000000       12.0112           0
      28 MOL  1    MOL  C    1      0.000000       12.0112           0
      29 MOL  1    MOL  C    1      0.000000       12.0112           0
      30 MOL  1    MOL  C    1      0.000000       12.0112           0
      31 MOL  1    MOL  C    1      0.000000       12.0112           0
      32 MOL  1    MOL  C    1      0.000000       12.0112           0
      33 MOL  1    MOL  C    1      0.000000       12.0112           0
      34 MOL  1    MOL  C    1      0.000000       12.0112           0
      35 MOL  1    MOL  C    1      0.000000       12.0112           0
      36 MOL  1    MOL  C    1      0.000000       12.0112           0
      37 MOL  1    MOL  C    1      0.000000       12.0112           0
      38 MOL  1    MOL  C    1      0.000000       12.0112           0
      39 MOL  1    MOL  C    1      0.000000       12.0112           0
      40 MOL  1    MOL  C    1      0.000000       12.0112           0
      41 MOL  1    MOL  C    1      0.000000       12.0112           0
      42 MOL  1    MOL  C    1      0.000000       12.0112           0
      43 MOL  1    MOL  C    1      0.000000       12.0112           0
      44 MOL  1    MOL  C    1      0.000000       12.0112           0
      45 MOL  1    MOL  C    1      0.000000       12.0112           0
      46 MOL  1    MOL  C    1      0.000000       12.0112           0
      47 MOL  1    MOL  C    1      0.000000       12.0112           0
      48 MOL  1    MOL  C    1      0.000000       12.0112           0
      49 MOL  1    MOL  C    1      0.000000       12.0112           0
      50 MOL  1    MOL  C    1      0.000000       12.0112           0
      51 MOL  1    MOL  C    1      0.000000       12.0112           0
      52 MOL  1    MOL  C    1      0.000000       12.0112           0
      53 MOL  1    MOL  C    1      0.000000       12.0112           0
      54 MOL  1    MOL  C    1      0.000000       12.0112           0
      55 MOL  1    MOL  C    1      0.000000       12.0112           0
      56 MOL  1    MOL  C    1      0.000000       12.0112           0
      57 MOL  1    MOL  C    1      0.000000       12.0112           0
      58 MOL  1    MOL  C    1      0.000000       12.0112           0
      59 MOL  1    MOL  C    1      0.000000       12.0112           0
      60 MOL  1    MOL  C    1      0.000000       12.0112           0
      61 MOL  2    MOL  C    1      0.000000       12.0112           0
      62 MOL  2    MOL  C    1      0.000000       12.0112           0
      63 MOL  2    MOL  C    1      0.000000       12.0112           0
      64 MOL  2    MOL  C    1      0.000000       12.0112           0
      65 MOL  2    MOL  C    1      0.000000       12.0112           0
      66 MOL  2    MOL  C    1      0.000000       12.0112           0
      67 MOL  2    MOL  C    1      0.000000       12.0112           0
      68 MOL  2    MOL  C    1      0.000000       12.0112           0
      69 MOL  2    MOL  C    1      0.000000       12.0112           0
      70 MOL  2    MOL  C    1      0.000000       12.0112           0
      71 MOL  2    MOL  C    1      0.000000       12.0112           0
      72 MOL  2    MOL  C    1      0.000000       12.0112           0
      73 MOL  2    MOL  C    1      0.000000       12.0112           0
      74 MOL  2    MOL  C    1      0.000000       12.0112           0
      75 MOL  2    MOL  C    1      0.000000       12.0112           0
      76 MOL  2    MOL  C    1      0.000000       12.0112           0
      77 MOL  2    MOL  C    1      0.000000       12.0112           0
      78 MOL  2    MOL  C    1      0.000000       12.0112           0
      79 MOL  2    MOL  C    1      0.000000       12.0112           0
      80 MOL  2    MOL  C    1      0.000000       12.0112           0
      81 MOL  2    MOL  C    1      0.000000       12.0112           0
      82 MOL  2    MOL  C    1      0.000000       12.0112           0
      83 MOL  2    MOL  C    1      0.000000       12.0112           0
      84 MOL  2    MOL  C    1      0.000000       12.0112           0
      85 MOL  2    MOL  C    1      0.000000       12.0112           0
      86 MOL  2    MOL  C    1      0.000000       12.0112           0
      87 MOL  2    MOL  C    1      0.000000       12.0112           0
      88 MOL  2    MOL  C    1      0.000000       12.0112           0
      89 MOL  2    MOL  C    1      0.000000       12.0112           0
      90 MOL  2    MOL  C    1      0.000000       12.0112           0
      91 MOL  2    MOL  C    1      0.000000       12.0112           0
      92 MOL  2    MOL  C    1      0.000000       12.0112           0
      93 MOL  2    MOL  C    1      0.000000       12.0112           0
      94 MOL  2    MOL  C    1      0.000000       12.0112           0
      95 MOL  2    MOL  C    1      0.000000       12.0112           0
      96 MOL  2    MOL  C    1      0.000000       12.0112           0
      97 MOL  2    MOL  C    1      0.000000       12.0112           0
      98 MOL  2    MOL  C    1      0.000000       12.0112           0
      99 MOL  2    MOL  C    1      0.000000       12.0112           0
     100 MOL  2    MOL  C    1      0.000000       12.0112           0
     101 MOL  2    MOL  C    1      0.000000       12.0112           0
     102 MOL  2    MOL  C    1      0.000000       12.0112           0
     103 MOL  2    MOL  C    1      0.000000       12.0112           0
     104 MOL  2    MOL  C    1      0.000000       12.0112           0
     105 MOL  2    MOL  C    1      0.000000       12.0112           0
     106 MOL  2    MOL  C    1      0.000000       12.0112           0
     107 MOL  2    MOL  C    1      0.000000       12.0112           0
     108 MOL  2    MOL  C    1      0.000000       12.0112           0
     109 MOL  2    MOL  C    1      0.000000       12.0112           0
     110 MOL  2    MOL  C    1      0.000000       12.0112           0
     111 MOL  2    MOL  C    1      0.000000       12.0112           0
     112 MOL  2    MOL  C    1      0.000000       12.0112           0
     113 MOL  2    MOL  C    1      0.000000       12.0112           0
     114 MOL  2    MOL  C    1      0.000000       12.0112           0
     115 MOL  2    MOL  C    1      0.000000       12.0112           0
     116 MOL  2    MOL  C    1      0.000000       12.0112           0
     117 MOL  2    MOL  C    1      0.000000       12.0112           0
     118 MOL  2    MOL  C    1      0.000000       12.0112           0
     119 MOL  2    MOL  C    1      0.000000       12.0112           0
     120 MOL  2    MOL  C    1      0.000000       12.0112           0
     121 MOL  3    MOL  C    1      0.000000       12.0112           0
     122 MOL  3    MOL  C    1      0.000000       12.0112           0
     123 MOL  3    MOL  C    1      0.000000       12.0112           0
     124 MOL  3    MOL  C    1      0.000000       12.0112           0
     125 MOL  3    MOL  C    1      0.000000       12.0112           0
     126 MOL  3    MOL  C    1      0.000000       12.0112           0
     127 MOL  3    MOL  C    1      0.000000       12.0112           0
     128 MOL  3    MOL  C    1      0.000000       12.0112           0
     129 MOL  3    MOL  C    1      0.000000       12.0112           0
     130 MOL  3    MOL  C    1      0.000000       12.0112           0
     131 MOL  3    MOL  C    1      0.000000       12.0112           0
     132 MOL  3    MOL  C    1      0.000000       12.0112           0
     133 MOL  3    MOL  C    1      0.000000       12.0112           0
     134 MOL  3    MOL  C    1      0.000000       12.0112           0
     135 MOL  3    MOL  C    1      0.000000       12.0112           0
     136 MOL  3    MOL  C    1      0.000000       12.0112           0
     137 MOL  3    MOL  C    1      0.000000       12.0112           0
     138 MOL  3    MOL  C    1      0.000000       12.0112           0
     139 MOL  3    MOL  C    1      0.000000       12.0112           0
     140 MOL  3    MOL  C    1      0.000000       12.0112           0
     141 MOL  3    MOL  C    1      0.000000       12.0112           0
     142 MOL  3    MOL  C    1      0.000000       12.0112           0
     143 MOL  3    MOL  C    1      0.000000       12.0112           0
     144 MOL  3    MOL  C    1      0.000000       12.0112           0
     145 MOL  3    MOL  C    1      0.000000       12.0112           0
     146 MOL  3    MOL  C    1      0.000000       12.0112           0
     147 MOL  3    MOL  C    1      0.000000       12.0112           0
     148 MOL  3    MOL  C    1      0.000000       12.0112           0
     149 MOL  3    MOL  C    1      0.000000       12.0112           0
     150 MOL  3    MOL  C    1      0.000000       12.0112           0
     151 MOL  3    MOL  C    1      0.000000       12.0112           0
     152 MOL  3    MOL  C    1      0.000000       12.0112           0
     153 MOL  3    MOL  C    1      0.000000       12.0112           0
     154 MOL  3    MOL  C    1      0.000000       12.0112           0
     155 MOL  3    MOL  C    1      0.000000       12.0112           0
     156 MOL  3    MOL  C    1      0.000000       12.0112           0
     157 MOL  3    MOL  C    1      0.000000       12.0112           0
     158 MOL  3    MOL  C    1      0.000000       12.0112           0
     159 MOL  3    MOL  C    1      0.000000       12.0112           0
     160 MOL  3    MOL  C    1      0.000000       12.0112           0
     161 MOL  3    MOL  C    1      0.000000       12.0112           0
     162 MOL  3    MOL  C    1      0.000000       12.0112           0
     163 MOL  3    MOL  C    1      0.000000       12.0112           0
     164 MOL  3    MOL  C    1      0.000000       12.0112           0
     165 MOL  3    MOL  C    1      0.000000       12.0112           0
     166 MOL  3    MOL  C    1      0.000000       12.0112           0
     167 MOL  3    MOL  C    1      0.000000       12.0112           0
     168 MOL  3    MOL  C    1      0.000000       12.0112           0
     169 MOL  3    MOL  C    1      0.000000       12.0112           0
     170 MOL  3    MOL  C    1      0.000000       12.0112           0
     171 MOL  3    MOL  C    1      0.000000       12.0112           0
     172 MOL  3    MOL  C    1      0.000000       12.0112           0
     173 MOL  3    MOL  C    1      0.000000       12.0112           0
     174 MOL  3    MOL  C    1      0.000000       12.0112           0
     175 MOL  3    MOL  C    1      0.000000       12.0112           0
     176 MOL  3    MOL  C    1      0.000000       12.0112           0
     177 MOL  3    MOL  C    1      0.000000       12.0112           0
     178 MOL  3    MOL  C    1      0.000000       12.0112           0
     179 MOL  3    MOL  C    1      0.000000       12.0112           0
     180 MOL  3    MOL  C    1      0.000000       12.0112           0
     181 MOL  4    MOL  C    1      0.000000       12.0112           0
     182 MOL  4    MOL  C    1      0.000000       12.0112           0
     183 MOL  4    MOL  C    1      0.000000       12.0112           0
     184 MOL  4    MOL  C    1      0.000000       12.0112           0
     185 MOL  4    MOL  C    1      0.000000       12.0112           0
     186 MOL  4    MOL  C    1      0.000000       12.0112           0
     187 MOL  4    MOL  C    1      0.000000       12.0112           0
     188 MOL  4    MOL  C    1      0.000000       12.0112           0
     189 MOL  4    MOL  C    1      0.000000       12.0112           0
     190 MOL  4    MOL  C    1      0.000000       12.0112           0
     191 MOL  4    MOL  C    1      0.000000       12.0112           0
     192 MOL  4    MOL  C    1      0.000000       12.0112           0
     193 MOL  4    MOL  C    1      0.000000       12.0112           0
     194 MOL  4    MOL  C    1      0.000000       12.0112           0
     195 MOL  4    MOL  C    1      0.000000       12.0112           0
     196 MOL  4    MOL  C    1      0.000000       12.0112           0
     197 MOL  4    MOL  C    1      0.000000       12.0112           0
     198 MOL  4    MOL  C    1      0.000000       12.0112           0
     199 MOL  4    MOL  C    1      0.000000       12.0112           0
     200 MOL  4    MOL  C    1      0.000000       12.0112           0
     201 MOL  4    MOL  C    1      0.000000       12.0112           0
     202 MOL  4    MOL  C    1      0.000000       12.0112           0
     203 MOL  4    MOL  C    1      0.000000       12.0112           0
     204 MOL  4    MOL  C    1      0.000000       12.0112           0
     205 MOL  4    MOL  C    1      0.000000       12.0112           0
     206 MOL  4    MOL  C    1      0.000000       12.0112           0
     207 MOL  4    MOL  C    1      0.000000       12.0112           0
     208 MOL  4    MOL  C    1      0.000000       12.0112           0
     209 MOL  4    MOL  C    1      0.000000       12.0112           0
     210 MOL  4    MOL  C    1      0.000000       12.0112           0
     211 MOL  4    MOL  C    1      0.000000       12.0112           0
     212 MOL  4    MOL  C    1      0.000000       12.0112           0
     213 MOL  4    MOL  C    1      0.000000       12.0112           0
     214 MOL  4    MOL  C    1      0.000000       12.0112           0
     215 MOL  4    MOL  C    1      0.000000       12.0112           0
     216 MOL  4    MOL  C    1      0.000000       12.0112           0
     217 MOL  4    MOL  C    1      0.000000       12.0112           0
     218 MOL  4    MOL  C    1      0.000000       12.0112           0
     219 MOL  4    MOL  C    1      0.000000       12.0112           0
     220 MOL  4    MOL  C    1      0.000000       12.0112           0
     221 MOL  4    MOL  C    1      0.000000       12.0112           0
     222 MOL  4    MOL  C    1      0.000000       12.0112           0
     223 MOL  4    MOL  C    1      0.000000       12.0112           0
     224 MOL  4    MOL  C    1      0.000000       12.0112           0
     225 MOL  4    MOL  C    1      0.000000       12.0112           0
     226 MOL  4    MOL  C    1      0.000000       12.0112           0
     227 MOL  4    MOL  C    1      0.000000       12.0112           0
     228 MOL  4    MOL  C    1      0.000000       12.0112           0
     229 MOL  4    MOL  C    1      0.000000       12.0112           0
     230 MOL  4    MOL  C    1      0.000000       12.0112           0
     231 MOL  4    MOL  C    1      0.000000       12.0112           0
     232 MOL  4    MOL  C    1      0.000000       12.0112           0
     233 MOL  4    MOL  C    1      0.000000       12.0112           0
     234 MOL  4    MOL  C    1      0.000000       12.0112           0
     235 MOL  4    MOL  C    1      0.000000       12.0112           0
     236 MOL  4    MOL  C    1      0.000000       12.0112           0
     237 MOL  4    MOL  C    1      0.000000       12.0112           0
     238 MOL  4    MOL  C    1      0.000000       12.0112           0
     239 MOL  4    MOL  C    1      0.000000       12.0112           0
     240 MOL  4    MOL  C    1      0.000000       12.0112           0
     241 MOL  5    MOL  C    1      0.000000       12.0112           0
     242 MOL  5    MOL  C    1      0.000000       12.0112           0
     243 MOL  5    MOL  C    1      0.000000       12.0112           0
     244 MOL  5    MOL  C    1      0.000000       12.0112           0
     245 MOL  5    MOL  C    1      0.000000       12.0112           0
     246 MOL  5    MOL  C    1      0.000000       12.0112           0
     247 MOL  5    MOL  C    1      0.000000       12.0112           0
     248 MOL  5    MOL  C    1      0.000000       12.0112           0
     249 MOL  5    MOL  C    1      0.000000       12.0112           0
     250 MOL  5    MOL  C    1      0.000000       12.0112           0
     251 MOL  5    MOL  C    1      0.000000       12.0112           0
     252 MOL  5    MOL  C    1      0.000000       12.0112           0
     253 MOL  5    MOL  C    1      0.000000       12.0112           0
     254 MOL  5    MOL  C    1      0.000000       12.0112           0
     255 MOL  5    MOL  C    1      0.000000       12.0112           0
     256 MOL  5    MOL  C    1      0.000000       12.0112           0
     257 MOL  5    MOL  C    1      0.000000       12.0112           0
     258 MOL  5    MOL  C    1      0.000000       12.0112           0
     259 MOL  5    MOL  C    1      0.000000       12.0112           0
     260 MOL  5    MOL  C    1      0.000000       12.0112           0
     261 MOL  5    MOL  C    1      0.000000       12.0112           0
     262 MOL  5    MOL  C    1      0.000000       12.0112           0
     263 MOL  5    MOL  C    1      0.000000       12.0112           0
     264 MOL  5    MOL  C    1      0.000000       12.0112           0
     265 MOL  5    MOL  C    1      0.000000       12.0112           0
     266 MOL  5    MOL  C    1      0.000000       12.0112           0
     267 MOL  5    MOL  C    1      0.000000       12.0112           0
     268 MOL  5    MOL  C    1      0.000000       12.0112           0
     269 MOL  5    MOL  C    1      0.000000       12.0112           0
     270 MOL  5    MOL  C    1      0.000000       12.0112           0
     271 MOL  5    MOL  C    1      0.000000       12.0112           0
     272 MOL  5    MOL  C    1      0.000000       12.0112           0
     273 MOL  5    MOL  C    1      0.000000       12.0112           0
     274 MOL  5    MOL  C    1      0.000000       12.0112           0
     275 MOL  5    MOL  C    1      0.000000       12.0112           0
     276 MOL  5    MOL  C    1      0.000000       12.0112           0
     277 MOL  5    MOL  C    1      0.000000       12.0112           0
     278 MOL  5    MOL  C    1      0.000000       12.0112           0
     279 MOL  5    MOL  C    1      0.000000       12.0112           0
     280 MOL  5    MOL  C    1      0.000000       12.0112           0
     281 MOL  5    MOL  C    1      0.000000       12.0112           0
     282 MOL  5    MOL  C    1      0.000000       12.0112           0
     283 MOL  5    MOL  C    1      0.000000       12.0112           0
     284 MOL  5    MOL  C    1      0.000000       12.0112           0
     285 MOL  5    MOL  C    1      0.000000       12.0112           0
     286 MOL  5    MOL  C    1      0.000000       12.0112           0
     287 MOL  5    MOL  C    1      0.000000       12.0112           0
     288 MOL  5    MOL  C    1      0.000000       12.0112           0
     289 MOL  5    MOL  C    1      0.000000       12.0112           0
     290 MOL  5    MOL  C    1      0.000000       12.0112           0
     291 MOL  5    MOL  C    1      0.000000       12.0112           0
     292 MOL  5    MOL  C    1      0.000000       12.0112           0
     293 MOL  5    MOL  C    1      0.000000       12.0112           0
     294 MOL  5    MOL  C    1      0.000000       12.0112           0
     295 MOL  5    MOL  C    1      0.000000       12.0112           0
     296 MOL  5    MOL  C    1      0.000000       12.0112           0
     297 MOL  5    MOL  C    1      0.000000       12.0112           0
     298 MOL  5    MOL  C    1      0.000000       12.0112           0
     299 MOL  5    MOL  C    1      0.000000       12.0112           0
     300 MOL  5    MOL  C    1      0.000000       12.0112           0
     301 MOL  6    MOL  C    1      0.000000       12.0112           0
     302 MOL  6    MOL  C    1      0.000000       12.0112           0
     303 MOL  6    MOL  C    1      0.000000       12.0112           0
     304 MOL  6    MOL  C    1      0.000000       12.0112           0
     305 MOL  6    MOL  C    1      0.000000       12.0112           0
     306 MOL  6    MOL  C    1      0.000000       12.0112           0
     307 MOL  6    MOL  C    1      0.000000       12.0112           0
     308 MOL  6    MOL  C    1      0.000000       12.0112           0
     309 MOL  6    MOL  C    1      0.000000       12.0112           0
     310 MOL  6    MOL  C    1      0.000000       12.0112           0
     311 MOL  6    MOL  C    1      0.000000       12.0112           0
     312 MOL  6    MOL  C    1      0.000000       12.0112           0
     313 MOL  6    MOL  C    1      0.000000       12.0112           0
     314 MOL  6    MOL  C    1      0.000000       12.0112           0
     315 MOL  6    MOL  C    1      0.000000       12.0112           0
     316 MOL  6    MOL  C    1      0.000000       12.0112           0
     317 MOL  6    MOL  C    1      0.000000       12.0112           0
     318 MOL  6    MOL  C    1      0.000000       12.0112           0
     319 MOL  6    MOL  C    1      0.000000       12.0112           0
     320 MOL  6    MOL  C    1      0.000000       12.0112           0
     321 MOL  6    MOL  C    1      0.000000       12.0112           0
     322 MOL  6    MOL  C    1      0.000000       12.0112           0
     323 MOL  6    MOL  C    1      0.000000       12.0112           0
     324 MOL  6    MOL  C    1      0.000000       12.0112           0
     325 MOL  6    MOL  C    1      0.000000       12.0112           0
     326 MOL  6    MOL  C    1      0.000000       12.0112           0
     327 MOL  6    MOL  C    1      0.000000       12.0112           0
     328 MOL  6    MOL  C    1      0.000000       12.0112           0
     329 MOL  6    MOL  C    1      0.000000       12.0112           0
     330 MOL  6    MOL  C    1      0.000000       12.0112           0
     331 MOL  6    MOL  C    1      0.000000       12.0112           0
     332 MOL  6    MOL  C    1      0.000000       12.0112           0
     333 MOL  6    MOL  C    1      0.000000       12.0112           0
     334 MOL  6    MOL  C    1      0.000000       12.0112           0
     335 MOL  6    MOL  C    1      0.000000       12.0112           0
     336 MOL  6    MOL  C    1      0.000000       12.0112           0
     337 MOL  6    MOL  C    1      0.000000       12.0112           0
     338 MOL  6    MOL  C    1      0.000000       12.0112           0
     339 MOL  6    MOL  C    1      0.000000       12.0112           0
     340 MOL  6    MOL  C    1      0.000000       12.0112           0
     341 MOL  6    MOL  C    1      0.000000       12.0112           0
     342 MOL  6    MOL  C    1      0.000000       12.0112           0
     343 MOL  6    MOL  C    1      0.000000       12.0112           0
     344 MOL  6    MOL  C    1      0.000000       12.0112           0
     345 MOL  6    MOL  C    1      0.000000       12.0112           0
     346 MOL  6    MOL  C    1      0.000000       12.0112           0
     347 MOL  6    MOL  C    1      0.000000       12.0112           0
     348 MOL  6    MOL  C    1      0.000000       12.0112           0
     349 MOL  6    MOL  C    1      0.000000       12.0112           0
     350 MOL  6    MOL  C    1      0.000000       12.0112           0
     351 MOL  6    MOL  C    1      0.000000       12.0112           0
     352 MOL  6    MOL  C    1      0.000000       12.0112           0
     353 MOL  6    MOL  C    1      0.000000       12.0112           0
     354 MOL  6    MOL  C    1      0.000000       12.0112           0
     355 MOL  6    MOL  C    1      0.000000       12.0112           0
     356 MOL  6    MOL  C    1      0.000000       12.0112           0
     357 MOL  6    MOL  C    1      0.000000       12.0112           0
     358 MOL  6    MOL  C    1      0.000000       12.0112           0
     359 MOL  6    MOL  C    1      0.000000       12.0112           0
     360 MOL  6    MOL  C    1      0.000000       12.0112           0
     361 MOL  7    MOL  C    2      0.000000       12.0112           0
     362 MOL  7    MOL  C    3      0.000000       12.0112           0
     363 MOL  7    MOL  C    3      0.000000       12.0112           0
     364 MOL  7    MOL  C    3      0.000000       12.0112           0
     365 MOL  7    MOL  C    3      0.000000       12.0112           0
     366 MOL  7    MOL  C    3      0.000000       12.0112           0
     367 MOL  7    MOL  C    4      0.000000       12.0112           0
     368 MOL  7    MOL  C    3      0.000000       12.0112           0
     369 MOL  7    MOL  C    3      0.000000       12.0112           0
     370 MOL  7    MOL  C    3      0.000000       12.0112           0
     371 MOL  7    MOL  C    3      0.000000       12.0112           0
     372 MOL  7    MOL  C    3      0.000000       12.0112           0
     373 MOL  7    MOL  C    3      0.000000       12.0112           0
     374 MOL  7    MOL  C    5      0.000000       12.0112           0
     375 MOL  7    MOL  C    5      0.000000       12.0112           0
     376 MOL  7    MOL  C    6      0.000000       15.9994           0
     377 MOL  7    MOL  C    7      0.000000       12.0110           0
     378 MOL  7    MOL  C    8      0.000000       15.9994           0
     379 MOL  7    MOL  C    9      0.000000       15.9994           0
     380 MOL  7    MOL  C    10     0.000000        1.0080           0
     381 MOL  7    MOL  C    10     0.000000        1.0080           0
     382 MOL  7    MOL  C    10     0.000000        1.0080           0
     383 MOL  7    MOL  C    10     0.000000        1.0080           0
     384 MOL  7    MOL  C    10     0.000000        1.0080           0
     385 MOL  7    MOL  C    10     0.000000        1.0080           0
     386 MOL  7    MOL  C    10     0.000000        1.0080           0
     387 MOL  7    MOL  C    10     0.000000        1.0080           0
     388 MOL  7    MOL  C    10     0.000000        1.0080           0
     389 MOL  7    MOL  C    10     0.000000        1.0080           0
     390 MOL  7    MOL  C    10     0.000000        1.0080           0
     391 MOL  7    MOL  C    10     0.000000        1.0080           0
     392 MOL  7    MOL  C    10     0.000000        1.0080           0
     393 MOL  7    MOL  C    10     0.000000        1.0080           0
     394 MOL  8    MOL  C    2      0.000000       12.0112           0
     395 MOL  8    MOL  C    3      0.000000       12.0112           0
     396 MOL  8    MOL  C    3      0.000000       12.0112           0
     397 MOL  8    MOL  C    3      0.000000       12.0112           0
     398 MOL  8    MOL  C    3      0.000000       12.0112           0
     399 MOL  8    MOL  C    3      0.000000       12.0112           0
     400 MOL  8    MOL  C    4      0.000000       12.0112           0
     401 MOL  8    MOL  C    3      0.000000       12.0112           0
     402 MOL  8    MOL  C    3      0.000000       12.0112           0
     403 MOL  8    MOL  C    3      0.000000       12.0112           0
     404 MOL  8    MOL  C    3      0.000000       12.0112           0
     405 MOL  8    MOL  C    3      0.000000       12.0112           0
     406 MOL  8    MOL  C    3      0.000000       12.0112           0
     407 MOL  8    MOL  C    5      0.000000       12.0112           0
     408 MOL  8    MOL  C    5      0.000000       12.0112           0
     409 MOL  8    MOL  C    6      0.000000       15.9994           0
     410 MOL  8    MOL  C    7      0.000000       12.0110           0
     411 MOL  8    MOL  C    8      0.000000       15.9994           0
     412 MOL  8    MOL  C    9      0.000000       15.9994           0
     413 MOL  8    MOL  C    10     0.000000        1.0080           0
     414 MOL  8    MOL  C    10     0.000000        1.0080           0
     415 MOL  8    MOL  C    10     0.000000        1.0080           0
     416 MOL  8    MOL  C    10     0.000000        1.0080           0
     417 MOL  8    MOL  C    10     0.000000        1.0080           0
     418 MOL  8    MOL  C    10     0.000000        1.0080           0
     419 MOL  8    MOL  C    10     0.000000        1.0080           0
     420 MOL  8    MOL  C    10     0.000000        1.0080           0
     421 MOL  8    MOL  C    10     0.000000        1.0080           0
     422 MOL  8    MOL  C    10     0.000000        1.0080           0
     423 MOL  8    MOL  C    10     0.000000        1.0080           0
     424 MOL  8    MOL  C    10     0.000000        1.0080           0
     425 MOL  8    MOL  C    10     0.000000        1.0080           0
     426 MOL  8    MOL  C    10     0.000000        1.0080           0
     427 MOL  9    MOL  C    2      0.000000       12.0112           0
     428 MOL  9    MOL  C    3      0.000000       12.0112           0
     429 MOL  9    MOL  C    3      0.000000       12.0112           0
     430 MOL  9    MOL  C    3      0.000000       12.0112           0
     431 MOL  9    MOL  C    3      0.000000       12.0112           0
     432 MOL  9    MOL  C    3      0.000000       12.0112           0
     433 MOL  9    MOL  C    4      0.000000       12.0112           0
     434 MOL  9    MOL  C    3      0.000000       12.0112           0
     435 MOL  9    MOL  C    3      0.000000       12.0112           0
     436 MOL  9    MOL  C    3      0.000000       12.0112           0
     437 MOL  9    MOL  C    3      0.000000       12.0112           0
     438 MOL  9    MOL  C    3      0.000000       12.0112           0
     439 MOL  9    MOL  C    3      0.000000       12.0112           0
     440 MOL  9    MOL  C    5      0.000000       12.0112           0
     441 MOL  9    MOL  C    5      0.000000       12.0112           0
     442 MOL  9    MOL  C    6      0.000000       15.9994           0
     443 MOL  9    MOL  C    7      0.000000       12.0110           0
     444 MOL  9    MOL  C    8      0.000000       15.9994           0
     445 MOL  9    MOL  C    9      0.000000       15.9994           0
     446 MOL  9    MOL  C    10     0.000000        1.0080           0
     447 MOL  9    MOL  C    10     0.000000        1.0080           0
     448 MOL  9    MOL  C    10     0.000000        1.0080           0
     449 MOL  9    MOL  C    10     0.000000        1.0080           0
     450 MOL  9    MOL  C    10     0.000000        1.0080           0
     451 MOL  9    MOL  C    10     0.000000        1.0080           0
     452 MOL  9    MOL  C    10     0.000000        1.0080           0
     453 MOL  9    MOL  C    10     0.000000        1.0080           0
     454 MOL  9    MOL  C    10     0.000000        1.0080           0
     455 MOL  9    MOL  C    10     0.000000        1.0080           0
     456 MOL  9    MOL  C    10     0.000000        1.0080           0
     457 MOL  9    MOL  C    10     0.000000        1.0080           0
     458 MOL  9    MOL  C    10     0.000000        1.0080           0
     459 MOL  9    MOL  C    10     0.000000        1.0080           0
     460 MOL  10   MOL  C    2      0.000000       12.0112           0
     461 MOL  10   MOL  C    3      0.000000       12.0112           0
     462 MOL  10   MOL  C    3      0.000000       12.0112           0
     463 MOL  10   MOL  C    3      0.000000       12.0112           0
     464 MOL  10   MOL  C    3      0.000000       12.0112           0
     465 MOL  10   MOL  C    3      0.000000       12.0112           0
     466 MOL  10   MOL  C    4      0.000000       12.0112           0
     467 MOL  10   MOL  C    3      0.000000       12.0112           0
     468 MOL  10   MOL  C    3      0.000000       12.0112           0
     469 MOL  10   MOL  C    3      0.000000       12.0112           0
     470 MOL  10   MOL  C    3      0.000000       12.0112           0
     471 MOL  10   MOL  C    3      0.000000       12.0112           0
     472 MOL  10   MOL  C    3      0.000000       12.0112           0
     473 MOL  10   MOL  C    5      0.000000       12.0112           0
     474 MOL  10   MOL  C    5      0.000000       12.0112           0
     475 MOL  10   MOL  C    6      0.000000       15.9994           0
     476 MOL  10   MOL  C    7      0.000000       12.0110           0
     477 MOL  10   MOL  C    8      0.000000       15.9994           0
     478 MOL  10   MOL  C    9      0.000000       15.9994           0
     479 MOL  10   MOL  C    10     0.000000        1.0080           0
     480 MOL  10   MOL  C    10     0.000000        1.0080           0
     481 MOL  10   MOL  C    10     0.000000        1.0080           0
     482 MOL  10   MOL  C    10     0.000000        1.0080           0
     483 MOL  10   MOL  C    10     0.000000        1.0080           0
     484 MOL  10   MOL  C    10     0.000000        1.0080           0
     485 MOL  10   MOL  C    10     0.000000        1.0080           0
     486 MOL  10   MOL  C    10     0.000000        1.0080           0
     487 MOL  10   MOL  C    10     0.000000        1.0080           0
     488 MOL  10   MOL  C    10     0.000000        1.0080           0
     489 MOL  10   MOL  C    10     0.000000        1.0080           0
     490 MOL  10   MOL  C    10     0.000000        1.0080           0
     491 MOL  10   MOL  C    10     0.000000        1.0080           0
     492 MOL  10   MOL  C    10     0.000000        1.0080           0
     493 MOL  11   MOL  C    2      0.000000       12.0112           0
     494 MOL  11   MOL  C    3      0.000000       12.0112           0
     495 MOL  11   MOL  C    3      0.000000       12.0112           0
     496 MOL  11   MOL  C    3      0.000000       12.0112           0
     497 MOL  11   MOL  C    3      0.000000       12.0112           0
     498 MOL  11   MOL  C    3      0.000000       12.0112           0
     499 MOL  11   MOL  C    4      0.000000       12.0112           0
     500 MOL  11   MOL  C    3      0.000000       12.0112           0
     501 MOL  11   MOL  C    3      0.000000       12.0112           0
     502 MOL  11   MOL  C    3      0.000000       12.0112           0
     503 MOL  11   MOL  C    3      0.000000       12.0112           0
     504 MOL  11   MOL  C    3      0.000000       12.0112           0
     505 MOL  11   MOL  C    3      0.000000       12.0112           0
     506 MOL  11   MOL  C    5      0.000000       12.0112           0
     507 MOL  11   MOL  C    5      0.000000       12.0112           0
     508 MOL  11   MOL  C    6      0.000000       15.9994           0
     509 MOL  11   MOL  C    7      0.000000       12.0110           0
     510 MOL  11   MOL  C    8      0.000000       15.9994           0
     511 MOL  11   MOL  C    9      0.000000       15.9994           0
     512 MOL  11   MOL  C    10     0.000000        1.0080           0
     513 MOL  11   MOL  C    10     0.000000        1.0080           0
     514 MOL  11   MOL  C    10     0.000000        1.0080           0
     515 MOL  11   MOL  C    10     0.000000        1.0080           0
     516 MOL  11   MOL  C    10     0.000000        1.0080           0
     517 MOL  11   MOL  C    10     0.000000        1.0080           0
     518 MOL  11   MOL  C    10     0.000000        1.0080           0
     519 MOL  11   MOL  C    10     0.000000        1.0080           0
     520 MOL  11   MOL  C    10     0.000000        1.0080           0
     521 MOL  11   MOL  C    10     0.000000        1.0080           0
     522 MOL  11   MOL  C    10     0.000000        1.0080           0
     523 MOL  11   MOL  C    10     0.000000        1.0080           0
     524 MOL  11   MOL  C    10     0.000000        1.0080           0
     525 MOL  11   MOL  C    10     0.000000        1.0080           0
     526 MOL  12   MOL  C    2      0.000000       12.0112           0
     527 MOL  12   MOL  C    3      0.000000       12.0112           0
     528 MOL  12   MOL  C    3      0.000000       12.0112           0
     529 MOL  12   MOL  C    3      0.000000       12.0112           0
     530 MOL  12   MOL  C    3      0.000000       12.0112           0
     531 MOL  12   MOL  C    3      0.000000       12.0112           0
     532 MOL  12   MOL  C    4      0.000000       12.0112           0
     533 MOL  12   MOL  C    3      0.000000       12.0112           0
     534 MOL  12   MOL  C    3      0.000000       12.0112           0
     535 MOL  12   MOL  C    3      0.000000       12.0112           0
     536 MOL  12   MOL  C    3      0.000000       12.0112           0
     537 MOL  12   MOL  C    3      0.000000       12.0112           0
     538 MOL  12   MOL  C    3      0.000000       12.0112           0
     539 MOL  12   MOL  C    5      0.000000       12.0112           0
     540 MOL  12   MOL  C    5      0.000000       12.0112           0
     541 MOL  12   MOL  C    6      0.000000       15.9994           0
     542 MOL  12   MOL  C    7      0.000000       12.0110           0
     543 MOL  12   MOL  C    8      0.000000       15.9994           0
     544 MOL  12   MOL  C    9      0.000000       15.9994           0
     545 MOL  12   MOL  C    10     0.000000        1.0080           0
     546 MOL  12   MOL  C    10     0.000000        1.0080           0
     547 MOL  12   MOL  C    10     0.000000        1.0080           0
     548 MOL  12   MOL  C    10     0.000000        1.0080           0
     549 MOL  12   MOL  C    10     0.000000        1.0080           0
     550 MOL  12   MOL  C    10     0.000000        1.0080           0
     551 MOL  12   MOL  C    10     0.000000        1.0080           0
     552 MOL  12   MOL  C    10     0.000000        1.0080           0
     553 MOL  12   MOL  C    10     0.000000        1.0080           0
     554 MOL  12   MOL  C    10     0.000000        1.0080           0
     555 MOL  12   MOL  C    10     0.000000        1.0080           0
     556 MOL  12   MOL  C    10     0.000000        1.0080           0
     557 MOL  12   MOL  C    10     0.000000        1.0080           0
     558 MOL  12   MOL  C    10     0.000000        1.0080           0
     559 MOL  13   MOL  C    2      0.000000       12.0112           0
     560 MOL  13   MOL  C    3      0.000000       12.0112           0
     561 MOL  13   MOL  C    3      0.000000       12.0112           0
     562 MOL  13   MOL  C    3      0.000000       12.0112           0
     563 MOL  13   MOL  C    3      0.000000       12.0112           0
     564 MOL  13   MOL  C    3      0.000000       12.0112           0
     565 MOL  13   MOL  C    4      0.000000       12.0112           0
     566 MOL  13   MOL  C    3      0.000000       12.0112           0
     567 MOL  13   MOL  C    3      0.000000       12.0112           0
     568 MOL  13   MOL  C    3      0.000000       12.0112           0
     569 MOL  13   MOL  C    3      0.000000       12.0112           0
     570 MOL  13   MOL  C    3      0.000000       12.0112           0
     571 MOL  13   MOL  C    3      0.000000       12.0112           0
     572 MOL  13   MOL  C    5      0.000000       12.0112           0
     573 MOL  13   MOL  C    5      0.000000       12.0112           0
     574 MOL  13   MOL  C    6      0.000000       15.9994           0
     575 MOL  13   MOL  C    7      0.000000       12.0110           0
     576 MOL  13   MOL  C    8      0.000000       15.9994           0
     577 MOL  13   MOL  C    9      0.000000       15.9994           0
     578 MOL  13   MOL  C    10     0.000000        1.0080           0
     579 MOL  13   MOL  C    10     0.000000        1.0080           0
     580 MOL  13   MOL  C    10     0.000000        1.0080           0
     581 MOL  13   MOL  C    10     0.000000        1.0080           0
     582 MOL  13   MOL  C    10     0.000000        1.0080           0
     583 MOL  13   MOL  C    10     0.000000        1.0080           0
     584 MOL  13   MOL  C    10     0.000000        1.0080           0
     585 MOL  13   MOL  C    10     0.000000        1.0080           0
     586 MOL  13   MOL  C    10     0.000000        1.0080           0
     587 MOL  13   MOL  C    10     0.000000        1.0080           0
     588 MOL  13   MOL  C    10     0.000000        1.0080           0
     589 MOL  13   MOL  C    10     0.000000        1.0080           0
     590 MOL  13   MOL  C    10     0.000000        1.0080           0
     591 MOL  13   MOL  C    10     0.000000        1.0080           0
     592 MOL  14   MOL  C    2      0.000000       12.0112           0
     593 MOL  14   MOL  C    3      0.000000       12.0112           0
     594 MOL  14   MOL  C    3      0.000000       12.0112           0
     595 MOL  14   MOL  C    3      0.000000       12.0112           0
     596 MOL  14   MOL  C    3      0.000000       12.0112           0
     597 MOL  14   MOL  C    3      0.000000       12.0112           0
     598 MOL  14   MOL  C    4      0.000000       12.0112           0
     599 MOL  14   MOL  C    3      0.000000       12.0112           0
     600 MOL  14   MOL  C    3      0.000000       12.0112           0
     601 MOL  14   MOL  C    3      0.000000       12.0112           0
     602 MOL  14   MOL  C    3      0.000000       12.0112           0
     603 MOL  14   MOL  C    3      0.000000       12.0112           0
     604 MOL  14   MOL  C    3      0.000000       12.0112           0
     605 MOL  14   MOL  C    5      0.000000       12.0112           0
     606 MOL  14   MOL  C    5      0.000000       12.0112           0
     607 MOL  14   MOL  C    6      0.000000       15.9994           0
     608 MOL  14   MOL  C    7      0.000000       12.0110           0
     609 MOL  14   MOL  C    8      0.000000       15.9994           0
     610 MOL  14   MOL  C    9      0.000000       15.9994           0
     611 MOL  14   MOL  C    10     0.000000        1.0080           0
     612 MOL  14   MOL  C    10     0.000000        1.0080           0
     613 MOL  14   MOL  C    10     0.000000        1.0080           0
     614 MOL  14   MOL  C    10     0.000000        1.0080           0
     615 MOL  14   MOL  C    10     0.000000        1.0080           0
     616 MOL  14   MOL  C    10     0.000000        1.0080           0
     617 MOL  14   MOL  C    10     0.000000        1.0080           0
     618 MOL  14   MOL  C    10     0.000000        1.0080           0
     619 MOL  14   MOL  C    10     0.000000        1.0080           0
     620 MOL  14   MOL  C    10     0.000000        1.0080           0
     621 MOL  14   MOL  C    10     0.000000        1.0080           0
     622 MOL  14   MOL  C    10     0.000000        1.0080           0
     623 MOL  14   MOL  C    10     0.000000        1.0080           0
     624 MOL  14   MOL  C    10     0.000000        1.0080           0
     625 MOL  15   MOL  C    2      0.000000       12.0112           0
     626 MOL  15   MOL  C    3      0.000000       12.0112           0
     627 MOL  15   MOL  C    3      0.000000       12.0112           0
     628 MOL  15   MOL  C    3      0.000000       12.0112           0
     629 MOL  15   MOL  C    3      0.000000       12.0112           0
     630 MOL  15   MOL  C    3      0.000000       12.0112           0
     631 MOL  15   MOL  C    4      0.000000       12.0112           0
     632 MOL  15   MOL  C    3      0.000000       12.0112           0
     633 MOL  15   MOL  C    3      0.000000       12.0112           0
     634 MOL  15   MOL  C    3      0.000000       12.0112           0
     635 MOL  15   MOL  C    3      0.000000       12.0112           0
     636 MOL  15   MOL  C    3      0.000000       12.0112           0
     637 MOL  15   MOL  C    3      0.000000       12.0112           0
     638 MOL  15   MOL  C    5      0.000000       12.0112           0
     639 MOL  15   MOL  C    5      0.000000       12.0112           0
     640 MOL  15   MOL  C    6      0.000000       15.9994           0
     641 MOL  15   MOL  C    7      0.000000       12.0110           0
     642 MOL  15   MOL  C    8      0.000000       15.9994           0
     643 MOL  15   MOL  C    9      0.000000       15.9994           0
     644 MOL  15   MOL  C    10     0.000000        1.0080           0
     645 MOL  15   MOL  C    10     0.000000        1.0080           0
     646 MOL  15   MOL  C    10     0.000000        1.0080           0
     647 MOL  15   MOL  C    10     0.000000        1.0080           0
     648 MOL  15   MOL  C    10     0.000000        1.0080           0
     649 MOL  15   MOL  C    10     0.000000        1.0080           0
     650 MOL  15   MOL  C    10     0.000000        1.0080           0
     651 MOL  15   MOL  C    10     0.000000        1.0080           0
     652 MOL  15   MOL  C    10     0.000000        1.0080           0
     653 MOL  15   MOL  C    10     0.000000        1.0080           0
     654 MOL  15   MOL  C    10     0.000000        1.0080           0
     655 MOL  15   MOL  C    10     0.000000        1.0080           0
     656 MOL  15   MOL  C    10     0.000000        1.0080           0
     657 MOL  15   MOL  C    10     0.000000        1.0080           0
     658 MOL  16   MOL  C    2      0.000000       12.0112           0
     659 MOL  16   MOL  C    3      0.000000       12.0112           0
     660 MOL  16   MOL  C    3      0.000000       12.0112           0
     661 MOL  16   MOL  C    3      0.000000       12.0112           0
     662 MOL  16   MOL  C    3      0.000000       12.0112           0
     663 MOL  16   MOL  C    3      0.000000       12.0112           0
     664 MOL  16   MOL  C    4      0.000000       12.0112           0
     665 MOL  16   MOL  C    3      0.000000       12.0112           0
     666 MOL  16   MOL  C    3      0.000000       12.0112           0
     667 MOL  16   MOL  C    3      0.000000       12.0112           0
     668 MOL  16   MOL  C    3      0.000000       12.0112           0
     669 MOL  16   MOL  C    3      0.000000       12.0112           0
     670 MOL  16   MOL  C    3      0.000000       12.0112           0
     671 MOL  16   MOL  C    5      0.000000       12.0112           0
     672 MOL  16   MOL  C    5      0.000000       12.0112           0
     673 MOL  16   MOL  C    6      0.000000       15.9994           0
     674 MOL  16   MOL  C    7      0.000000       12.0110           0
     675 MOL  16   MOL  C    8      0.000000       15.9994           0
     676 MOL  16   MOL  C    9      0.000000       15.9994           0
     677 MOL  16   MOL  C    10     0.000000        1.0080           0
     678 MOL  16   MOL  C    10     0.000000        1.0080           0
     679 MOL  16   MOL  C    10     0.000000        1.0080           0
     680 MOL  16   MOL  C    10     0.000000        1.0080           0
     681 MOL  16   MOL  C    10     0.000000        1.0080           0
     682 MOL  16   MOL  C    10     0.000000        1.0080           0
     683 MOL  16   MOL  C    10     0.000000        1.0080           0
     684 MOL  16   MOL  C    10     0.000000        1.0080           0
     685 MOL  16   MOL  C    10     0.000000        1.0080           0
     686 MOL  16   MOL  C    10     0.000000        1.0080           0
     687 MOL  16   MOL  C    10     0.000000        1.0080           0
     688 MOL  16   MOL  C    10     0.000000        1.0080           0
     689 MOL  16   MOL  C    10     0.000000        1.0080           0
     690 MOL  16   MOL  C    10     0.000000        1.0080           0
     691 MOL  17   MOL  C    2      0.000000       12.0112           0
     692 MOL  17   MOL  C    3      0.000000       12.0112           0
     693 MOL  17   MOL  C    3      0.000000       12.0112           0
     694 MOL  17   MOL  C    3      0.000000       12.0112           0
     695 MOL  17   MOL  C    3      0.000000       12.0112           0
     696 MOL  17   MOL  C    3      0.000000       12.0112           0
     697 MOL  17   MOL  C    4      0.000000       12.0112           0
     698 MOL  17   MOL  C    3      0.000000       12.0112           0
     699 MOL  17   MOL  C    3      0.000000       12.0112           0
     700 MOL  17   MOL  C    3      0.000000       12.0112           0
     701 MOL  17   MOL  C    3      0.000000       12.0112           0
     702 MOL  17   MOL  C    3      0.000000       12.0112           0
     703 MOL  17   MOL  C    3      0.000000       12.0112           0
     704 MOL  17   MOL  C    5      0.000000       12.0112           0
     705 MOL  17   MOL  C    5      0.000000       12.0112           0
     706 MOL  17   MOL  C    6      0.000000       15.9994           0
     707 MOL  17   MOL  C    7      0.000000       12.0110           0
     708 MOL  17   MOL  C    8      0.000000       15.9994           0
     709 MOL  17   MOL  C    9      0.000000       15.9994           0
     710 MOL  17   MOL  C    10     0.000000        1.0080           0
     711 MOL  17   MOL  C    10     0.000000        1.0080           0
     712 MOL  17   MOL  C    10     0.000000        1.0080           0
     713 MOL  17   MOL  C    10     0.000000        1.0080           0
     714 MOL  17   MOL  C    10     0.000000        1.0080           0
     715 MOL  17   MOL  C    10     0.000000        1.0080           0
     716 MOL  17   MOL  C    10     0.000000        1.0080           0
     717 MOL  17   MOL  C    10     0.000000        1.0080           0
     718 MOL  17   MOL  C    10     0.000000        1.0080           0
     719 MOL  17   MOL  C    10     0.000000        1.0080           0
     720 MOL  17   MOL  C    10     0.000000        1.0080           0
     721 MOL  17   MOL  C    10     0.000000        1.0080           0
     722 MOL  17   MOL  C    10     0.000000        1.0080           0
     723 MOL  17   MOL  C    10     0.000000        1.0080           0
     724 MOL  18   MOL  C    2      0.000000       12.0112           0
     725 MOL  18   MOL  C    3      0.000000       12.0112           0
     726 MOL  18   MOL  C    3      0.000000       12.0112           0
     727 MOL  18   MOL  C    3      0.000000       12.0112           0
     728 MOL  18   MOL  C    3      0.000000       12.0112           0
     729 MOL  18   MOL  C    3      0.000000       12.0112           0
     730 MOL  18   MOL  C    4      0.000000       12.0112           0
     731 MOL  18   MOL  C    3      0.000000       12.0112           0
     732 MOL  18   MOL  C    3      0.000000       12.0112           0
     733 MOL  18   MOL  C    3      0.000000       12.0112           0
     734 MOL  18   MOL  C    3      0.000000       12.0112           0
     735 MOL  18   MOL  C    3      0.000000       12.0112           0
     736 MOL  18   MOL  C    3      0.000000       12.0112           0
     737 MOL  18   MOL  C    5      0.000000       12.0112           0
     738 MOL  18   MOL  C    5      0.000000       12.0112           0
     739 MOL  18   MOL  C    6      0.000000       15.9994           0
     740 MOL  18   MOL  C    7      0.000000       12.0110           0
     741 MOL  18   MOL  C    8      0.000000       15.9994           0
     742 MOL  18   MOL  C    9      0.000000       15.9994           0
     743 MOL  18   MOL  C    10     0.000000        1.0080           0
     744 MOL  18   MOL  C    10     0.000000        1.0080           0
     745 MOL  18   MOL  C    10     0.000000        1.0080           0
     746 MOL  18   MOL  C    10     0.000000        1.0080           0
     747 MOL  18   MOL  C    10     0.000000        1.0080           0
     748 MOL  18   MOL  C    10     0.000000        1.0080           0
     749 MOL  18   MOL  C    10     0.000000        1.0080           0
     750 MOL  18   MOL  C    10     0.000000        1.0080           0
     751 MOL  18   MOL  C    10     0.000000        1.0080           0
     752 MOL  18   MOL  C    10     0.000000        1.0080           0
     753 MOL  18   MOL  C    10     0.000000        1.0080           0
     754 MOL  18   MOL  C    10     0.000000        1.0080           0
     755 MOL  18   MOL  C    10     0.000000        1.0080           0
     756 MOL  18   MOL  C    10     0.000000        1.0080           0
     757 MOL  19   MOL  C    2      0.000000       12.0112           0
     758 MOL  19   MOL  C    3      0.000000       12.0112           0
     759 MOL  19   MOL  C    3      0.000000       12.0112           0
     760 MOL  19   MOL  C    3      0.000000       12.0112           0
     761 MOL  19   MOL  C    3      0.000000       12.0112           0
     762 MOL  19   MOL  C    3      0.000000       12.0112           0
     763 MOL  19   MOL  C    4      0.000000       12.0112           0
     764 MOL  19   MOL  C    3      0.000000       12.0112           0
     765 MOL  19   MOL  C    3      0.000000       12.0112           0
     766 MOL  19   MOL  C    3      0.000000       12.0112           0
     767 MOL  19   MOL  C    3      0.000000       12.0112           0
     768 MOL  19   MOL  C    3      0.000000       12.0112           0
     769 MOL  19   MOL  C    3      0.000000       12.0112           0
     770 MOL  19   MOL  C    5      0.000000       12.0112           0
     771 MOL  19   MOL  C    5      0.000000       12.0112           0
     772 MOL  19   MOL  C    6      0.000000       15.9994           0
     773 MOL  19   MOL  C    7      0.000000       12.0110           0
     774 MOL  19   MOL  C    8      0.000000       15.9994           0
     775 MOL  19   MOL  C    9      0.000000       15.9994           0
     776 MOL  19   MOL  C    10     0.000000        1.0080           0
     777 MOL  19   MOL  C    10     0.000000        1.0080           0
     778 MOL  19   MOL  C    10     0.000000        1.0080           0
     779 MOL  19   MOL  C    10     0.000000        1.0080           0
     780 MOL  19   MOL  C    10     0.000000        1.0080           0
     781 MOL  19   MOL  C    10     0.000000        1.0080           0
     782 MOL  19   MOL  C    10     0.000000        1.0080           0
     783 MOL  19   MOL  C    10     0.000000        1.0080           0
     784 MOL  19   MOL  C    10     0.000000        1.0080           0
     785 MOL  19   MOL  C    10     0.000000        1.0080           0
     786 MOL  19   MOL  C    10     0.000000        1.0080           0
     787 MOL  19   MOL  C    10     0.000000        1.0080           0
     788 MOL  19   MOL  C    10     0.000000        1.0080           0
     789 MOL  19   MOL  C    10     0.000000        1.0080           0
     790 MOL  20   MOL  C    2      0.000000       12.0112           0
     791 MOL  20   MOL  C    3      0.000000       12.0112           0
     792 MOL  20   MOL  C    3      0.000000       12.0112           0
     793 MOL  20   MOL  C    3      0.000000       12.0112           0
     794 MOL  20   MOL  C    3      0.000000       12.0112           0
     795 MOL  20   MOL  C    3      0.000000       12.0112           0
     796 MOL  20   MOL  C    4      0.000000       12.0112           0
     797 MOL  20   MOL  C    3      0.000000       12.0112           0
     798 MOL  20   MOL  C    3      0.000000       12.0112           0
     799 MOL  20   MOL  C    3      0.000000       12.0112           0
     800 MOL  20   MOL  C    3      0.000000       12.0112           0
     801 MOL  20   MOL  C    3      0.000000       12.0112           0
     802 MOL  20   MOL  C    3      0.000000       12.0112           0
     803 MOL  20   MOL  C    5      0.000000       12.0112           0
     804 MOL  20   MOL  C    5      0.000000       12.0112           0
     805 MOL  20   MOL  C    6      0.000000       15.9994           0
     806 MOL  20   MOL  C    7      0.000000       12.0110           0
     807 MOL  20   MOL  C    8      0.000000       15.9994           0
     808 MOL  20   MOL  C    9      0.000000       15.9994           0
     809 MOL  20   MOL  C    10     0.000000        1.0080           0
     810 MOL  20   MOL  C    10     0.000000        1.0080           0
     811 MOL  20   MOL  C    10     0.000000        1.0080           0
     812 MOL  20   MOL  C    10     0.000000        1.0080           0
     813 MOL  20   MOL  C    10     0.000000        1.0080           0
     814 MOL  20   MOL  C    10     0.000000        1.0080           0
     815 MOL  20   MOL  C    10     0.000000        1.0080           0
     816 MOL  20   MOL  C    10     0.000000        1.0080           0
     817 MOL  20   MOL  C    10     0.000000        1.0080           0
     818 MOL  20   MOL  C    10     0.000000        1.0080           0
     819 MOL  20   MOL  C    10     0.000000        1.0080           0
     820 MOL  20   MOL  C    10     0.000000        1.0080           0
     821 MOL  20   MOL  C    10     0.000000        1.0080           0
     822 MOL  20   MOL  C    10     0.000000        1.0080           0
     823 MOL  21   MOL  C    2      0.000000       12.0112           0
     824 MOL  21   MOL  C    3      0.000000       12.0112           0
     825 MOL  21   MOL  C    3      0.000000       12.0112           0
     826 MOL  21   MOL  C    3      0.000000       12.0112           0
     827 MOL  21   MOL  C    3      0.000000       12.0112           0
     828 MOL  21   MOL  C    3      0.000000       12.0112           0
     829 MOL  21   MOL  C    4      0.000000       12.0112           0
     830 MOL  21   MOL  C    3      0.000000       12.0112           0
     831 MOL  21   MOL  C    3      0.000000       12.0112           0
     832 MOL  21   MOL  C    3      0.000000       12.0112           0
     833 MOL  21   MOL  C    3      0.000000       12.0112           0
     834 MOL  21   MOL  C    3      0.000000       12.0112           0
     835 MOL  21   MOL  C    3      0.000000       12.0112           0
     836 MOL  21   MOL  C    5      0.000000       12.0112           0
     837 MOL  21   MOL  C    5      0.000000       12.0112           0
     838 MOL  21   MOL  C    6      0.000000       15.9994           0
     839 MOL  21   MOL  C    7      0.000000       12.0110           0
     840 MOL  21   MOL  C    8      0.000000       15.9994           0
     841 MOL  21   MOL  C    9      0.000000       15.9994           0
     842 MOL  21   MOL  C    10     0.000000        1.0080           0
     843 MOL  21   MOL  C    10     0.000000        1.0080           0
     844 MOL  21   MOL  C    10     0.000000        1.0080           0
     845 MOL  21   MOL  C    10     0.000000        1.0080           0
     846 MOL  21   MOL  C    10     0.000000        1.0080           0
     847 MOL  21   MOL  C    10     0.000000        1.0080           0
     848 MOL  21   MOL  C    10     0.000000        1.0080           0
     849 MOL  21   MOL  C    10     0.000000        1.0080           0
     850 MOL  21   MOL  C    10     0.000000        1.0080           0
     851 MOL  21   MOL  C    10     0.000000        1.0080           0
     852 MOL  21   MOL  C    10     0.000000        1.0080           0
     853 MOL  21   MOL  C    10     0.000000        1.0080           0
     854 MOL  21   MOL  C    10     0.000000        1.0080           0
     855 MOL  21   MOL  C    10     0.000000        1.0080           0
     856 MOL  22   MOL  C    2      0.000000       12.0112           0
     857 MOL  22   MOL  C    3      0.000000       12.0112           0
     858 MOL  22   MOL  C    3      0.000000       12.0112           0
     859 MOL  22   MOL  C    3      0.000000       12.0112           0
     860 MOL  22   MOL  C    3      0.000000       12.0112           0
     861 MOL  22   MOL  C    3      0.000000       12.0112           0
     862 MOL  22   MOL  C    4      0.000000       12.0112           0
     863 MOL  22   MOL  C    3      0.000000       12.0112           0
     864 MOL  22   MOL  C    3      0.000000       12.0112           0
     865 MOL  22   MOL  C    3      0.000000       12.0112           0
     866 MOL  22   MOL  C    3      0.000000       12.0112           0
     867 MOL  22   MOL  C    3      0.000000       12.0112           0
     868 MOL  22   MOL  C    3      0.000000       12.0112           0
     869 MOL  22   MOL  C    5      0.000000       12.0112           0
     870 MOL  22   MOL  C    5      0.000000       12.0112           0
     871 MOL  22   MOL  C    6      0.000000       15.9994           0
     872 MOL  22   MOL  C    7      0.000000       12.0110           0
     873 MOL  22   MOL  C    8      0.000000       15.9994           0
     874 MOL  22   MOL  C    9      0.000000       15.9994           0
     875 MOL  22   MOL  C    10     0.000000        1.0080           0
     876 MOL  22   MOL  C    10     0.000000        1.0080           0
     877 MOL  22   MOL  C    10     0.000000        1.0080           0
     878 MOL  22   MOL  C    10     0.000000        1.0080           0
     879 MOL  22   MOL  C    10     0.000000        1.0080           0
     880 MOL  22   MOL  C    10     0.000000        1.0080           0
     881 MOL  22   MOL  C    10     0.000000        1.0080           0
     882 MOL  22   MOL  C    10     0.000000        1.0080           0
     883 MOL  22   MOL  C    10     0.000000        1.0080           0
     884 MOL  22   MOL  C    10     0.000000        1.0080           0
     885 MOL  22   MOL  C    10     0.000000        1.0080           0
     886 MOL  22   MOL  C    10     0.000000        1.0080           0
     887 MOL  22   MOL  C    10     0.000000        1.0080           0
     888 MOL  22   MOL  C    10     0.000000        1.0080           0
     889 MOL  23   MOL  C    2      0.000000       12.0112           0
     890 MOL  23   MOL  C    3      0.000000       12.0112           0
     891 MOL  23   MOL  C    3      0.000000       12.0112           0
     892 MOL  23   MOL  C    3      0.000000       12.0112           0
     893 MOL  23   MOL  C    3      0.000000       12.0112           0
     894 MOL  23   MOL  C    3      0.000000       12.0112           0
     895 MOL  23   MOL  C    4      0.000000       12.0112           0
     896 MOL  23   MOL  C    3      0.000000       12.0112           0
     897 MOL  23   MOL  C    3      0.000000       12.0112           0
     898 MOL  23   MOL  C    3      0.000000       12.0112           0
     899 MOL  23   MOL  C    3      0.000000       12.0112           0
     900 MOL  23   MOL  C    3      0.000000       12.0112           0
     901 MOL  23   MOL  C    3      0.000000       12.0112           0
     902 MOL  23   MOL  C    5      0.000000       12.0112           0
     903 MOL  23   MOL  C    5      0.000000       12.0112           0
     904 MOL  23   MOL  C    6      0.000000       15.9994           0
     905 MOL  23   MOL  C    7      0.000000       12.0110           0
     906 MOL  23   MOL  C    8      0.000000       15.9994           0
     907 MOL  23   MOL  C    9      0.000000       15.9994           0
     908 MOL  23   MOL  C    10     0.000000        1.0080           0
     909 MOL  23   MOL  C    10     0.000000        1.0080           0
     910 MOL  23   MOL  C    10     0.000000        1.0080           0
     911 MOL  23   MOL  C    10     0.000000        1.0080           0
     912 MOL  23   MOL  C    10     0.000000        1.0080           0
     913 MOL  23   MOL  C    10     0.000000        1.0080           0
     914 MOL  23   MOL  C    10     0.000000        1.0080           0
     915 MOL  23   MOL  C    10     0.000000        1.0080           0
     916 MOL  23   MOL  C    10     0.000000        1.0080           0
     917 MOL  23   MOL  C    10     0.000000        1.0080           0
     918 MOL  23   MOL  C    10     0.000000        1.0080           0
     919 MOL  23   MOL  C    10     0.000000        1.0080           0
     920 MOL  23   MOL  C    10     0.000000        1.0080           0
     921 MOL  23   MOL  C    10     0.000000        1.0080           0
     922 MOL  24   MOL  C    2      0.000000       12.0112           0
     923 MOL  24   MOL  C    3      0.000000       12.0112           0
     924 MOL  24   MOL  C    3      0.000000       12.0112           0
     925 MOL  24   MOL  C    3      0.000000       12.0112           0
     926 MOL  24   MOL  C    3      0.000000       12.0112           0
     927 MOL  24   MOL  C    3      0.000000       12.0112           0
     928 MOL  24   MOL  C    4      0.000000       12.0112           0
     929 MOL  24   MOL  C    3      0.000000       12.0112           0
     930 MOL  24   MOL  C    3      0.000000       12.0112           0
     931 MOL  24   MOL  C    3      0.000000       12.0112           0
     932 MOL  24   MOL  C    3      0.000000       12.0112           0
     933 MOL  24   MOL  C    3      0.000000       12.0112           0
     934 MOL  24   MOL  C    3      0.000000       12.0112           0
     935 MOL  24   MOL  C    5      0.000000       12.0112           0
     936 MOL  24   MOL  C    5      0.000000       12.0112           0
     937 MOL  24   MOL  C    6      0.000000       15.9994           0
     938 MOL  24   MOL  C    7      0.000000       12.0110           0
     939 MOL  24   MOL  C    8      0.000000       15.9994           0
     940 MOL  24   MOL  C    9      0.000000       15.9994           0
     941 MOL  24   MOL  C    10     0.000000        1.0080           0
     942 MOL  24   MOL  C    10     0.000000        1.0080           0
     943 MOL  24   MOL  C    10     0.000000        1.0080           0
     944 MOL  24   MOL  C    10     0.000000        1.0080           0
     945 MOL  24   MOL  C    10     0.000000        1.0080           0
     946 MOL  24   MOL  C    10     0.000000        1.0080           0
     947 MOL  24   MOL  C    10     0.000000        1.0080           0
     948 MOL  24   MOL  C    10     0.000000        1.0080           0
     949 MOL  24   MOL  C    10     0.000000        1.0080           0
     950 MOL  24   MOL  C    10     0.000000        1.0080           0
     951 MOL  24   MOL  C    10     0.000000        1.0080           0
     952 MOL  24   MOL  C    10     0.000000        1.0080           0
     953 MOL  24   MOL  C    10     0.000000        1.0080           0
     954 MOL  24   MOL  C    10     0.000000        1.0080           0
     955 MOL  25   MOL  C    2      0.000000       12.0112           0
     956 MOL  25   MOL  C    3      0.000000       12.0112           0
     957 MOL  25   MOL  C    3      0.000000       12.0112           0
     958 MOL  25   MOL  C    3      0.000000       12.0112           0
     959 MOL  25   MOL  C    3      0.000000       12.0112           0
     960 MOL  25   MOL  C    3      0.000000       12.0112           0
     961 MOL  25   MOL  C    4      0.000000       12.0112           0
     962 MOL  25   MOL  C    3      0.000000       12.0112           0
     963 MOL  25   MOL  C    3      0.000000       12.0112           0
     964 MOL  25   MOL  C    3      0.000000       12.0112           0
     965 MOL  25   MOL  C    3      0.000000       12.0112           0
     966 MOL  25   MOL  C    3      0.000000       12.0112           0
     967 MOL  25   MOL  C    3      0.000000       12.0112           0
     968 MOL  25   MOL  C    5      0.000000       12.0112           0
     969 MOL  25   MOL  C    5      0.000000       12.0112           0
     970 MOL  25   MOL  C    6      0.000000       15.9994           0
     971 MOL  25   MOL  C    7      0.000000       12.0110           0
     972 MOL  25   MOL  C    8      0.000000       15.9994           0
     973 MOL  25   MOL  C    9      0.000000       15.9994           0
     974 MOL  25   MOL  C    10     0.000000        1.0080           0
     975 MOL  25   MOL  C    10     0.000000        1.0080           0
     976 MOL  25   MOL  C    10     0.000000        1.0080           0
     977 MOL  25   MOL  C    10     0.000000        1.0080           0
     978 MOL  25   MOL  C    10     0.000000        1.0080           0
     979 MOL  25   MOL  C    10     0.000000        1.0080           0
     980 MOL  25   MOL  C    10     0.000000        1.0080           0
     981 MOL  25   MOL  C    10     0.000000        1.0080           0
     982 MOL  25   MOL  C    10     0.000000        1.0080           0
     983 MOL  25   MOL  C    10     0.000000        1.0080           0
     984 MOL  25   MOL  C    10     0.000000        1.0080           0
     985 MOL  25   MOL  C    10     0.000000        1.0080           0
     986 MOL  25   MOL  C    10     0.000000        1.0080           0
     987 MOL  25   MOL  C    10     0.000000        1.0080           0
     988 MOL  26   MOL  C    2      0.000000       12.0112           0
     989 MOL  26   MOL  C    3      0.000000       12.0112           0
     990 MOL  26   MOL  C    3      0.000000       12.0112           0
     991 MOL  26   MOL  C    3      0.000000       12.0112           0
     992 MOL  26   MOL  C    3      0.000000       12.0112           0
     993 MOL  26   MOL  C    3      0.000000       12.0112           0
     994 MOL  26   MOL  C    4      0.000000       12.0112           0
     995 MOL  26   MOL  C    3      0.000000       12.0112           0
     996 MOL  26   MOL  C    3      0.000000       12.0112           0
     997 MOL  26   MOL  C    3      0.000000       12.0112           0
     998 MOL  26   MOL  C    3      0.000000       12.0112           0
     999 MOL  26   MOL  C    3      0.000000       12.0112           0
    1000 MOL  26   MOL  C    3      0.000000       12.0112           0
    1001 MOL  26   MOL  C    5      0.000000       12.0112           0
    1002 MOL  26   MOL  C    5      0.000000       12.0112           0
    1003 MOL  26   MOL  C    6      0.000000       15.9994           0
    1004 MOL  26   MOL  C    7      0.000000       12.0110           0
    1005 MOL  26   MOL  C    8      0.000000       15.9994           0
    1006 MOL  26   MOL  C    9      0.000000       15.9994           0
    1007 MOL  26   MOL  C    10     0.000000        1.0080           0
    1008 MOL  26   MOL  C    10     0.000000        1.0080           0
    1009 MOL  26   MOL  C    10     0.000000        1.0080           0
    1010 MOL  26   MOL  C    10     0.000000        1.0080           0
    1011 MOL  26   MOL  C    10     0.000000        1.0080           0
    1012 MOL  26   MOL  C    10     0.000000        1.0080           0
    1013 MOL  26   MOL  C    10     0.000000        1.0080           0
    1014 MOL  26   MOL  C    10     0.000000        1.0080           0
    1015 MOL  26   MOL  C    10     0.000000        1.0080           0
    1016 MOL  26   MOL  C    10     0.000000        1.0080           0
    1017 MOL  26   MOL  C    10     0.000000        1.0080           0
    1018 MOL  26   MOL  C    10     0.000000        1.0080           0
    1019 MOL  26   MOL  C    10     0.000000        1.0080           0
    1020 MOL  26   MOL  C    10     0.000000        1.0080           0
    1021 MOL  27   MOL  C    2      0.000000       12.0112           0
    1022 MOL  27   MOL  C    3      0.000000       12.0112           0
    1023 MOL  27   MOL  C    3      0.000000       12.0112           0
    1024 MOL  27   MOL  C    3      0.000000       12.0112           0
    1025 MOL  27   MOL  C    3      0.000000       12.0112           0
    1026 MOL  27   MOL  C    3      0.000000       12.0112           0
    1027 MOL  27   MOL  C    4      0.000000       12.0112           0
    1028 MOL  27   MOL  C    3      0.000000       12.0112           0
    1029 MOL  27   MOL  C    3      0.000000       12.0112           0
    1030 MOL  27   MOL  C    3      0.000000       12.0112           0
    1031 MOL  27   MOL  C    3      0.000000       12.0112           0
    1032 MOL  27   MOL  C    3      0.000000       12.0112           0
    1033 MOL  27   MOL  C    3      0.000000       12.0112           0
    1034 MOL  27   MOL  C    5      0.000000       12.0112           0
    1035 MOL  27   MOL  C    5      0.000000       12.0112           0
    1036 MOL  27   MOL  C    6      0.000000       15.9994           0
    1037 MOL  27   MOL  C    7      0.000000       12.0110           0
    1038 MOL  27   MOL  C    8      0.000000       15.9994           0
    1039 MOL  27   MOL  C    9      0.000000       15.9994           0
    1040 MOL  27   MOL  C    10     0.000000        1.0080           0
    1041 MOL  27   MOL  C    10     0.000000        1.0080           0
    1042 MOL  27   MOL  C    10     0.000000        1.0080           0
    1043 MOL  27   MOL  C    10     0.000000        1.0080           0
    1044 MOL  27   MOL  C    10     0.000000        1.0080           0
    1045 MOL  27   MOL  C    10     0.000000        1.0080           0
    1046 MOL  27   MOL  C    10     0.000000        1.0080           0
    1047 MOL  27   MOL  C    10     0.000000        1.0080           0
    1048 MOL  27   MOL  C    10     0.000000        1.0080           0
    1049 MOL  27   MOL  C    10     0.000000        1.0080           0
    1050 MOL  27   MOL  C    10     0.000000        1.0080           0
    1051 MOL  27   MOL  C    10     0.000000        1.0080           0
    1052 MOL  27   MOL  C    10     0.000000        1.0080           0
    1053 MOL  27   MOL  C    10     0.000000        1.0080           0
    1054 MOL  28   MOL  C    2      0.000000       12.0112           0
    1055 MOL  28   MOL  C    3      0.000000       12.0112           0
    1056 MOL  28   MOL  C    3      0.000000       12.0112           0
    1057 MOL  28   MOL  C    3      0.000000       12.0112           0
    1058 MOL  28   MOL  C    3      0.000000       12.0112           0
    1059 MOL  28   MOL  C    3      0.000000       12.0112           0
    1060 MOL  28   MOL  C    4      0.000000       12.0112           0
    1061 MOL  28   MOL  C    3      0.000000       12.0112           0
    1062 MOL  28   MOL  C    3      0.000000       12.0112           0
    1063 MOL  28   MOL  C    3      0.000000       12.0112           0
    1064 MOL  28   MOL  C    3      0.000000       12.0112           0
    1065 MOL  28   MOL  C    3      0.000000       12.0112           0
    1066 MOL  28   MOL  C    3      0.000000       12.0112           0
    1067 MOL  28   MOL  C    5      0.000000       12.0112           0
    1068 MOL  28   MOL  C    5      0.000000       12.0112           0
    1069 MOL  28   MOL  C    6      0.000000       15.9994           0
    1070 MOL  28   MOL  C    7      0.000000       12.0110           0
    1071 MOL  28   MOL  C    8      0.000000       15.9994           0
    1072 MOL  28   MOL  C    9      0.000000       15.9994           0
    1073 MOL  28   MOL  C    10     0.000000        1.0080           0
    1074 MOL  28   MOL  C    10     0.000000        1.0080           0
    1075 MOL  28   MOL  C    10     0.000000        1.0080           0
    1076 MOL  28   MOL  C    10     0.000000        1.0080           0
    1077 MOL  28   MOL  C    10     0.000000        1.0080           0
    1078 MOL  28   MOL  C    10     0.000000        1.0080           0
    1079 MOL  28   MOL  C    10     0.000000        1.0080           0
    1080 MOL  28   MOL  C    10     0.000000        1.0080           0
    1081 MOL  28   MOL  C    10     0.000000        1.0080           0
    1082 MOL  28   MOL  C    10     0.000000        1.0080           0
    1083 MOL  28   MOL  C    10     0.000000        1.0080           0
    1084 MOL  28   MOL  C    10     0.000000        1.0080           0
    1085 MOL  28   MOL  C    10     0.000000        1.0080           0
    1086 MOL  28   MOL  C    10     0.000000        1.0080           0
    1087 MOL  29   MOL  C    2      0.000000       12.0112           0
    1088 MOL  29   MOL  C    3      0.000000       12.0112           0
    1089 MOL  29   MOL  C    3      0.000000       12.0112           0
    1090 MOL  29   MOL  C    3      0.000000       12.0112           0
    1091 MOL  29   MOL  C    3      0.000000       12.0112           0
    1092 MOL  29   MOL  C    3      0.000000       12.0112           0
    1093 MOL  29   MOL  C    4      0.000000       12.0112           0
    1094 MOL  29   MOL  C    3      0.000000       12.0112           0
    1095 MOL  29   MOL  C    3      0.000000       12.0112           0
    1096 MOL  29   MOL  C    3      0.000000       12.0112           0
    1097 MOL  29   MOL  C    3      0.000000       12.0112           0
    1098 MOL  29   MOL  C    3      0.000000       12.0112           0
    1099 MOL  29   MOL  C    3      0.000000       12.0112           0
    1100 MOL  29   MOL  C    5      0.000000       12.0112           0
    1101 MOL  29   MOL  C    5      0.000000       12.0112           0
    1102 MOL  29   MOL  C    6      0.000000       15.9994           0
    1103 MOL  29   MOL  C    7      0.000000       12.0110           0
    1104 MOL  29   MOL  C    8      0.000000       15.9994           0
    1105 MOL  29   MOL  C    9      0.000000       15.9994           0
    1106 MOL  29   MOL  C    10     0.000000        1.0080           0
    1107 MOL  29   MOL  C    10     0.000000        1.0080           0
    1108 MOL  29   MOL  C    10     0.000000        1.0080           0
    1109 MOL  29   MOL  C    10     0.000000        1.0080           0
    1110 MOL  29   MOL  C    10     0.000000        1.0080           0
    1111 MOL  29   MOL  C    10     0.000000        1.0080           0
    1112 MOL  29   MOL  C    10     0.000000        1.0080           0
    1113 MOL  29   MOL  C    10     0.000000        1.0080           0
    1114 MOL  29   MOL  C    10     0.000000        1.0080           0
    1115 MOL  29   MOL  C    10     0.000000        1.0080           0
    1116 MOL  29   MOL  C    10     0.000000        1.0080           0
    1117 MOL  29   MOL  C    10     0.000000        1.0080           0
    1118 MOL  29   MOL  C    10     0.000000        1.0080           0
    1119 MOL  29   MOL  C    10     0.000000        1.0080           0
    1120 MOL  30   MOL  C    2      0.000000       12.0112           0
    1121 MOL  30   MOL  C    3      0.000000       12.0112           0
    1122 MOL  30   MOL  C    3      0.000000       12.0112           0
    1123 MOL  30   MOL  C    3      0.000000       12.0112           0
    1124 MOL  30   MOL  C    3      0.000000       12.0112           0
    1125 MOL  30   MOL  C    3      0.000000       12.0112           0
    1126 MOL  30   MOL  C    4      0.000000       12.0112           0
    1127 MOL  30   MOL  C    3      0.000000       12.0112           0
    1128 MOL  30   MOL  C    3      0.000000       12.0112           0
    1129 MOL  30   MOL  C    3      0.000000       12.0112           0
    1130 MOL  30   MOL  C    3      0.000000       12.0112           0
    1131 MOL  30   MOL  C    3      0.000000       12.0112           0
    1132 MOL  30   MOL  C    3      0.000000       12.0112           0
    1133 MOL  30   MOL  C    5      0.000000       12.0112           0
    1134 MOL  30   MOL  C    5      0.000000       12.0112           0
    1135 MOL  30   MOL  C    6      0.000000       15.9994           0
    1136 MOL  30   MOL  C    7      0.000000       12.0110           0
    1137 MOL  30   MOL  C    8      0.000000       15.9994           0
    1138 MOL  30   MOL  C    9      0.000000       15.9994           0
    1139 MOL  30   MOL  C    10     0.000000        1.0080           0
    1140 MOL  30   MOL  C    10     0.000000        1.0080           0
    1141 MOL  30   MOL  C    10     0.000000        1.0080           0
    1142 MOL  30   MOL  C    10     0.000000        1.0080           0
    1143 MOL  30   MOL  C    10     0.000000        1.0080           0
    1144 MOL  30   MOL  C    10     0.000000        1.0080           0
    1145 MOL  30   MOL  C    10     0.000000        1.0080           0
    1146 MOL  30   MOL  C    10     0.000000        1.0080           0
    1147 MOL  30   MOL  C    10     0.000000        1.0080           0
    1148 MOL  30   MOL  C    10     0.000000        1.0080           0
    1149 MOL  30   MOL  C    10     0.000000        1.0080           0
    1150 MOL  30   MOL  C    10     0.000000        1.0080           0
    1151 MOL  30   MOL  C    10     0.000000        1.0080           0
    1152 MOL  30   MOL  C    10     0.000000        1.0080           0
    1153 MOL  31   MOL  C    2      0.000000       12.0112           0
    1154 MOL  31   MOL  C    3      0.000000       12.0112           0
    1155 MOL  31   MOL  C    3      0.000000       12.0112           0
    1156 MOL  31   MOL  C    3      0.000000       12.0112           0
    1157 MOL  31   MOL  C    3      0.000000       12.0112           0
    1158 MOL  31   MOL  C    3      0.000000       12.0112           0
    1159 MOL  31   MOL  C    4      0.000000       12.0112           0
    1160 MOL  31   MOL  C    3      0.000000       12.0112           0
    1161 MOL  31   MOL  C    3      0.000000       12.0112           0
    1162 MOL  31   MOL  C    3      0.000000       12.0112           0
    1163 MOL  31   MOL  C    3      0.000000       12.0112           0
    1164 MOL  31   MOL  C    3      0.000000       12.0112           0
    1165 MOL  31   MOL  C    3      0.000000       12.0112           0
    1166 MOL  31   MOL  C    5      0.000000       12.0112           0
    1167 MOL  31   MOL  C    5      0.000000       12.0112           0
    1168 MOL  31   MOL  C    6      0.000000       15.9994           0
    1169 MOL  31   MOL  C    7      0.000000       12.0110           0
    1170 MOL  31   MOL  C    8      0.000000       15.9994           0
    1171 MOL  31   MOL  C    9      0.000000       15.9994           0
    1172 MOL  31   MOL  C    10     0.000000        1.0080           0
    1173 MOL  31   MOL  C    10     0.000000        1.0080           0
    1174 MOL  31   MOL  C    10     0.000000        1.0080           0
    1175 MOL  31   MOL  C    10     0.000000        1.0080           0
    1176 MOL  31   MOL  C    10     0.000000        1.0080           0
    1177 MOL  31   MOL  C    10     0.000000        1.0080           0
    1178 MOL  31   MOL  C    10     0.000000        1.0080           0
    1179 MOL  31   MOL  C    10     0.000000        1.0080           0
    1180 MOL  31   MOL  C    10     0.000000        1.0080           0
    1181 MOL  31   MOL  C    10     0.000000        1.0080           0
    1182 MOL  31   MOL  C    10     0.000000        1.0080           0
    1183 MOL  31   MOL  C    10     0.000000        1.0080           0
    1184 MOL  31   MOL  C    10     0.000000        1.0080           0
    1185 MOL  31   MOL  C    10     0.000000        1.0080           0
    1186 MOL  32   MOL  C    2      0.000000       12.0112           0
    1187 MOL  32   MOL  C    3      0.000000       12.0112           0
    1188 MOL  32   MOL  C    3      0.000000       12.0112           0
    1189 MOL  32   MOL  C    3      0.000000       12.0112           0
    1190 MOL  32   MOL  C    3      0.000000       12.0112           0
    1191 MOL  32   MOL  C    3      0.000000       12.0112           0
    1192 MOL  32   MOL  C    4      0.000000       12.0112           0
    1193 MOL  32   MOL  C    3      0.000000       12.0112           0
    1194 MOL  32   MOL  C    3      0.000000       12.0112           0
    1195 MOL  32   MOL  C    3      0.000000       12.0112           0
    1196 MOL  32   MOL  C    3      0.000000       12.0112           0
    1197 MOL  32   MOL  C    3      0.000000       12.0112           0
    1198 MOL  32   MOL  C    3      0.000000       12.0112           0
    1199 MOL  32   MOL  C    5      0.000000       12.0112           0
    1200 MOL  32   MOL  C    5      0.000000       12.0112           0
    1201 MOL  32   MOL  C    6      0.000000       15.9994           0
    1202 MOL  32   MOL  C    7      0.000000       12.0110           0
    1203 MOL  32   MOL  C    8      0.000000       15.9994           0
    1204 MOL  32   MOL  C    9      0.000000       15.9994           0
    1205 MOL  32   MOL  C    10     0.000000        1.0080           0
    1206 MOL  32   MOL  C    10     0.000000        1.0080           0
    1207 MOL  32   MOL  C    10     0.000000        1.0080           0
    1208 MOL  32   MOL  C    10     0.000000        1.0080           0
    1209 MOL  32   MOL  C    10     0.000000        1.0080           0
    1210 MOL  32   MOL  C    10     0.000000        1.0080           0
    1211 MOL  32   MOL  C    10     0.000000        1.0080           0
    1212 MOL  32   MOL  C    10     0.000000        1.0080           0
    1213 MOL  32   MOL  C    10     0.000000        1.0080           0
    1214 MOL  32   MOL  C    10     0.000000        1.0080           0
    1215 MOL  32   MOL  C    10     0.000000        1.0080           0
    1216 MOL  32   MOL  C    10     0.000000        1.0080           0
    1217 MOL  32   MOL  C    10     0.000000        1.0080           0
    1218 MOL  32   MOL  C    10     0.000000        1.0080           0
    1219 MOL  33   MOL  C    2      0.000000       12.0112           0
    1220 MOL  33   MOL  C    3      0.000000       12.0112           0
    1221 MOL  33   MOL  C    3      0.000000       12.0112           0
    1222 MOL  33   MOL  C    3      0.000000       12.0112           0
    1223 MOL  33   MOL  C    3      0.000000       12.0112           0
    1224 MOL  33   MOL  C    3      0.000000       12.0112           0
    1225 MOL  33   MOL  C    4      0.000000       12.0112           0
    1226 MOL  33   MOL  C    3      0.000000       12.0112           0
    1227 MOL  33   MOL  C    3      0.000000       12.0112           0
    1228 MOL  33   MOL  C    3      0.000000       12.0112           0
    1229 MOL  33   MOL  C    3      0.000000       12.0112           0
    1230 MOL  33   MOL  C    3      0.000000       12.0112           0
    1231 MOL  33   MOL  C    3      0.000000       12.0112           0
    1232 MOL  33   MOL  C    5      0.000000       12.0112           0
    1233 MOL  33   MOL  C    5      0.000000       12.0112           0
    1234 MOL  33   MOL  C    6      0.000000       15.9994           0
    1235 MOL  33   MOL  C    7      0.000000       12.0110           0
    1236 MOL  33   MOL  C    8      0.000000       15.9994           0
    1237 MOL  33   MOL  C    9      0.000000       15.9994           0
    1238 MOL  33   MOL  C    10     0.000000        1.0080           0
    1239 MOL  33   MOL  C    10     0.000000        1.0080           0
    1240 MOL  33   MOL  C    10     0.000000        1.0080           0
    1241 MOL  33   MOL  C    10     0.000000        1.0080           0
    1242 MOL  33   MOL  C    10     0.000000        1.0080           0
    1243 MOL  33   MOL  C    10     0.000000        1.0080           0
    1244 MOL  33   MOL  C    10     0.000000        1.0080           0
    1245 MOL  33   MOL  C    10     0.000000        1.0080           0
    1246 MOL  33   MOL  C    10     0.000000        1.0080           0
    1247 MOL  33   MOL  C    10     0.000000        1.0080           0
    1248 MOL  33   MOL  C    10     0.000000        1.0080           0
    1249 MOL  33   MOL  C    10     0.000000        1.0080           0
    1250 MOL  33   MOL  C    10     0.000000        1.0080           0
    1251 MOL  33   MOL  C    10     0.000000        1.0080           0
    1252 MOL  34   MOL  C    2      0.000000       12.0112           0
    1253 MOL  34   MOL  C    3      0.000000       12.0112           0
    1254 MOL  34   MOL  C    3      0.000000       12.0112           0
    1255 MOL  34   MOL  C    3      0.000000       12.0112           0
    1256 MOL  34   MOL  C    3      0.000000       12.0112           0
    1257 MOL  34   MOL  C    3      0.000000       12.0112           0
    1258 MOL  34   MOL  C    4      0.000000       12.0112           0
    1259 MOL  34   MOL  C    3      0.000000       12.0112           0
    1260 MOL  34   MOL  C    3      0.000000       12.0112           0
    1261 MOL  34   MOL  C    3      0.000000       12.0112           0
    1262 MOL  34   MOL  C    3      0.000000       12.0112           0
    1263 MOL  34   MOL  C    3      0.000000       12.0112           0
    1264 MOL  34   MOL  C    3      0.000000       12.0112           0
    1265 MOL  34   MOL  C    5      0.000000       12.0112           0
    1266 MOL  34   MOL  C    5      0.000000       12.0112           0
    1267 MOL  34   MOL  C    6      0.000000       15.9994           0
    1268 MOL  34   MOL  C    7      0.000000       12.0110           0
    1269 MOL  34   MOL  C    8      0.000000       15.9994           0
    1270 MOL  34   MOL  C    9      0.000000       15.9994           0
    1271 MOL  34   MOL  C    10     0.000000        1.0080           0
    1272 MOL  34   MOL  C    10     0.000000        1.0080           0
    1273 MOL  34   MOL  C    10     0.000000        1.0080           0
    1274 MOL  34   MOL  C    10     0.000000        1.0080           0
    1275 MOL  34   MOL  C    10     0.000000        1.0080           0
    1276 MOL  34   MOL  C    10     0.000000        1.0080           0
    1277 MOL  34   MOL  C    10     0.000000        1.0080           0
    1278 MOL  34   MOL  C    10     0.000000        1.0080           0
    1279 MOL  34   MOL  C    10     0.000000        1.0080           0
    1280 MOL  34   MOL  C    10     0.000000        1.0080           0
    1281 MOL  34   MOL  C    10     0.000000        1.0080           0
    1282 MOL  34   MOL  C    10     0.000000        1.0080           0
    1283 MOL  34   MOL  C    10     0.000000        1.0080           0
    1284 MOL  34   MOL  C    10     0.000000        1.0080           0
    1285 MOL  35   MOL  C    2      0.000000       12.0112           0
    1286 MOL  35   MOL  C    3      0.000000       12.0112           0
    1287 MOL  35   MOL  C    3      0.000000       12.0112           0
    1288 MOL  35   MOL  C    3      0.000000       12.0112           0
    1289 MOL  35   MOL  C    3      0.000000       12.0112           0
    1290 MOL  35   MOL  C    3      0.000000       12.0112           0
    1291 MOL  35   MOL  C    4      0.000000       12.0112           0
    1292 MOL  35   MOL  C    3      0.000000       12.0112           0
    1293 MOL  35   MOL  C    3      0.000000       12.0112           0
    1294 MOL  35   MOL  C    3      0.000000       12.0112           0
    1295 MOL  35   MOL  C    3      0.000000       12.0112           0
    1296 MOL  35   MOL  C    3      0.000000       12.0112           0
    1297 MOL  35   MOL  C    3      0.000000       12.0112           0
    1298 MOL  35   MOL  C    5      0.000000       12.0112           0
    1299 MOL  35   MOL  C    5      0.000000       12.0112           0
    1300 MOL  35   MOL  C    6      0.000000       15.9994           0
    1301 MOL  35   MOL  C    7      0.000000       12.0110           0
    1302 MOL  35   MOL  C    8      0.000000       15.9994           0
    1303 MOL  35   MOL  C    9      0.000000       15.9994           0
    1304 MOL  35   MOL  C    10     0.000000        1.0080           0
    1305 MOL  35   MOL  C    10     0.000000        1.0080           0
    1306 MOL  35   MOL  C    10     0.000000        1.0080           0
    1307 MOL  35   MOL  C    10     0.000000        1.0080           0
    1308 MOL  35   MOL  C    10     0.000000        1.0080           0
    1309 MOL  35   MOL  C    10     0.000000        1.0080           0
    1310 MOL  35   MOL  C    10     0.000000        1.0080           0
    1311 MOL  35   MOL  C    10     0.000000        1.0080           0
    1312 MOL  35   MOL  C    10     0.000000        1.0080           0
    1313 MOL  35   MOL  C    10     0.000000        1.0080           0
    1314 MOL  35   MOL  C    10     0.000000        1.0080           0
    1315 MOL  35   MOL  C    10     0.000000        1.0080           0
    1316 MOL  35   MOL  C    10     0.000000        1.0080           0
    1317 MOL  35   MOL  C    10     0.000000        1.0080           0
    1318 MOL  36   MOL  C    2      0.000000       12.0112           0
    1319 MOL  36   MOL  C    3      0.000000       12.0112           0
    1320 MOL  36   MOL  C    3      0.000000       12.0112           0
    1321 MOL  36   MOL  C    3      0.000000       12.0112           0
    1322 MOL  36   MOL  C    3      0.000000       12.0112           0
    1323 MOL  36   MOL  C    3      0.000000       12.0112           0
    1324 MOL  36   MOL  C    4      0.000000       12.0112           0
    1325 MOL  36   MOL  C    3      0.000000       12.0112           0
    1326 MOL  36   MOL  C    3      0.000000       12.0112           0
    1327 MOL  36   MOL  C    3      0.000000       12.0112           0
    1328 MOL  36   MOL  C    3      0.000000       12.0112           0
    1329 MOL  36   MOL  C    3      0.000000       12.0112           0
    1330 MOL  36   MOL  C    3      0.000000       12.0112           0
    1331 MOL  36   MOL  C    5      0.000000       12.0112           0
    1332 MOL  36   MOL  C    5      0.000000       12.0112           0
    1333 MOL  36   MOL  C    6      0.000000       15.9994           0
    1334 MOL  36   MOL  C    7      0.000000       12.0110           0
    1335 MOL  36   MOL  C    8      0.000000       15.9994           0
    1336 MOL  36   MOL  C    9      0.000000       15.9994           0
    1337 MOL  36   MOL  C    10     0.000000        1.0080           0
    1338 MOL  36   MOL  C    10     0.000000        1.0080           0
    1339 MOL  36   MOL  C    10     0.000000        1.0080           0
    1340 MOL  36   MOL  C    10     0.000000        1.0080           0
    1341 MOL  36   MOL  C    10     0.000000        1.0080           0
    1342 MOL  36   MOL  C    10     0.000000        1.0080           0
    1343 MOL  36   MOL  C    10     0.000000        1.0080           0
    1344 MOL  36   MOL  C    10     0.000000        1.0080           0
    1345 MOL  36   MOL  C    10     0.000000        1.0080           0
    1346 MOL  36   MOL  C    10     0.000000        1.0080           0
    1347 MOL  36   MOL  C    10     0.000000        1.0080           0
    1348 MOL  36   MOL  C    10     0.000000        1.0080           0
    1349 MOL  36   MOL  C    10     0.000000        1.0080           0
    1350 MOL  36   MOL  C    10     0.000000        1.0080           0
    1351 MOL  37   MOL  C    2      0.000000       12.0112           0
    1352 MOL  37   MOL  C    3      0.000000       12.0112           0
    1353 MOL  37   MOL  C    3      0.000000       12.0112           0
    1354 MOL  37   MOL  C    3      0.000000       12.0112           0
    1355 MOL  37   MOL  C    3      0.000000       12.0112           0
    1356 MOL  37   MOL  C    3      0.000000       12.0112           0
    1357 MOL  37   MOL  C    4      0.000000       12.0112           0
    1358 MOL  37   MOL  C    3      0.000000       12.0112           0
    1359 MOL  37   MOL  C    3      0.000000       12.0112           0
    1360 MOL  37   MOL  C    3      0.000000       12.0112           0
    1361 MOL  37   MOL  C    3      0.000000       12.0112           0
    1362 MOL  37   MOL  C    3      0.000000       12.0112           0
    1363 MOL  37   MOL  C    3      0.000000       12.0112           0
    1364 MOL  37   MOL  C    5      0.000000       12.0112           0
    1365 MOL  37   MOL  C    5      0.000000       12.0112           0
    1366 MOL  37   MOL  C    6      0.000000       15.9994           0
    1367 MOL  37   MOL  C    7      0.000000       12.0110           0
    1368 MOL  37   MOL  C    8      0.000000       15.9994           0
    1369 MOL  37   MOL  C    9      0.000000       15.9994           0
    1370 MOL  37   MOL  C    10     0.000000        1.0080           0
    1371 MOL  37   MOL  C    10     0.000000        1.0080           0
    1372 MOL  37   MOL  C    10     0.000000        1.0080           0
    1373 MOL  37   MOL  C    10     0.000000        1.0080           0
    1374 MOL  37   MOL  C    10     0.000000        1.0080           0
    1375 MOL  37   MOL  C    10     0.000000        1.0080           0
    1376 MOL  37   MOL  C    10     0.000000        1.0080           0
    1377 MOL  37   MOL  C    10     0.000000        1.0080           0
    1378 MOL  37   MOL  C    10     0.000000        1.0080           0
    1379 MOL  37   MOL  C    10     0.000000        1.0080           0
    1380 MOL  37   MOL  C    10     0.000000        1.0080           0
    1381 MOL  37   MOL  C    10     0.000000        1.0080           0
    1382 MOL  37   MOL  C    10     0.000000        1.0080           0
    1383 MOL  37   MOL  C    10     0.000000        1.0080           0
    1384 MOL  38   MOL  C    2      0.000000       12.0112           0
    1385 MOL  38   MOL  C    3      0.000000       12.0112           0
    1386 MOL  38   MOL  C    3      0.000000       12.0112           0
    1387 MOL  38   MOL  C    3      0.000000       12.0112           0
    1388 MOL  38   MOL  C    3      0.000000       12.0112           0
    1389 MOL  38   MOL  C    3      0.000000       12.0112           0
    1390 MOL  38   MOL  C    4      0.000000       12.0112           0
    1391 MOL  38   MOL  C    3      0.000000       12.0112           0
    1392 MOL  38   MOL  C    3      0.000000       12.0112           0
    1393 MOL  38   MOL  C    3      0.000000       12.0112           0
    1394 MOL  38   MOL  C    3      0.000000       12.0112           0
    1395 MOL  38   MOL  C    3      0.000000       12.0112           0
    1396 MOL  38   MOL  C    3      0.000000       12.0112           0
    1397 MOL  38   MOL  C    5      0.000000       12.0112           0
    1398 MOL  38   MOL  C    5      0.000000       12.0112           0
    1399 MOL  38   MOL  C    6      0.000000       15.9994           0
    1400 MOL  38   MOL  C    7      0.000000       12.0110           0
    1401 MOL  38   MOL  C    8      0.000000       15.9994           0
    1402 MOL  38   MOL  C    9      0.000000       15.9994           0
    1403 MOL  38   MOL  C    10     0.000000        1.0080           0
    1404 MOL  38   MOL  C    10     0.000000        1.0080           0
    1405 MOL  38   MOL  C    10     0.000000        1.0080           0
    1406 MOL  38   MOL  C    10     0.000000        1.0080           0
    1407 MOL  38   MOL  C    10     0.000000        1.0080           0
    1408 MOL  38   MOL  C    10     0.000000        1.0080           0
    1409 MOL  38   MOL  C    10     0.000000        1.0080           0
    1410 MOL  38   MOL  C    10     0.000000        1.0080           0
    1411 MOL  38   MOL  C    10     0.000000        1.0080           0
    1412 MOL  38   MOL  C    10     0.000000        1.0080           0
    1413 MOL  38   MOL  C    10     0.000000        1.0080           0
    1414 MOL  38   MOL  C    10     0.000000        1.0080           0
    1415 MOL  38   MOL  C    10     0.000000        1.0080           0
    1416 MOL  38   MOL  C    10     0.000000        1.0080           0
    1417 MOL  39   MOL  C    2      0.000000       12.0112           0
    1418 MOL  39   MOL  C    3      0.000000       12.0112           0
    1419 MOL  39   MOL  C    3      0.000000       12.0112           0
    1420 MOL  39   MOL  C    3      0.000000       12.0112           0
    1421 MOL  39   MOL  C    3      0.000000       12.0112           0
    1422 MOL  39   MOL  C    3      0.000000       12.0112           0
    1423 MOL  39   MOL  C    4      0.000000       12.0112           0
    1424 MOL  39   MOL  C    3      0.000000       12.0112           0
    1425 MOL  39   MOL  C    3      0.000000       12.0112           0
    1426 MOL  39   MOL  C    3      0.000000       12.0112           0
    1427 MOL  39   MOL  C    3      0.000000       12.0112           0
    1428 MOL  39   MOL  C    3      0.000000       12.0112           0
    1429 MOL  39   MOL  C    3      0.000000       12.0112           0
    1430 MOL  39   MOL  C    5      0.000000       12.0112           0
    1431 MOL  39   MOL  C    5      0.000000       12.0112           0
    1432 MOL  39   MOL  C    6      0.000000       15.9994           0
    1433 MOL  39   MOL  C    7      0.000000       12.0110           0
    1434 MOL  39   MOL  C    8      0.000000       15.9994           0
    1435 MOL  39   MOL  C    9      0.000000       15.9994           0
    1436 MOL  39   MOL  C    10     0.000000        1.0080           0
    1437 MOL  39   MOL  C    10     0.000000        1.0080           0
    1438 MOL  39   MOL  C    10     0.000000        1.0080           0
    1439 MOL  39   MOL  C    10     0.000000        1.0080           0
    1440 MOL  39   MOL  C    10     0.000000        1.0080           0
    1441 MOL  39   MOL  C    10     0.000000        1.0080           0
    1442 MOL  39   MOL  C    10     0.000000        1.0080           0
    1443 MOL  39   MOL  C    10     0.000000        1.0080           0
    1444 MOL  39   MOL  C    10     0.000000        1.0080           0
    1445 MOL  39   MOL  C    10     0.000000        1.0080           0
    1446 MOL  39   MOL  C    10     0.000000        1.0080           0
    1447 MOL  39   MOL  C    10     0.000000        1.0080           0
    1448 MOL  39   MOL  C    10     0.000000        1.0080           0
    1449 MOL  39   MOL  C    10     0.000000        1.0080           0
    1450 MOL  40   MOL  C    2      0.000000       12.0112           0
    1451 MOL  40   MOL  C    3      0.000000       12.0112           0
    1452 MOL  40   MOL  C    3      0.000000       12.0112           0
    1453 MOL  40   MOL  C    3      0.000000       12.0112           0
    1454 MOL  40   MOL  C    3      0.000000       12.0112           0
    1455 MOL  40   MOL  C    3      0.000000       12.0112           0
    1456 MOL  40   MOL  C    4      0.000000       12.0112           0
    1457 MOL  40   MOL  C    3      0.000000       12.0112           0
    1458 MOL  40   MOL  C    3      0.000000       12.0112           0
    1459 MOL  40   MOL  C    3      0.000000       12.0112           0
    1460 MOL  40   MOL  C    3      0.000000       12.0112           0
    1461 MOL  40   MOL  C    3      0.000000       12.0112           0
    1462 MOL  40   MOL  C    3      0.000000       12.0112           0
    1463 MOL  40   MOL  C    5      0.000000       12.0112           0
    1464 MOL  40   MOL  C    5      0.000000       12.0112           0
    1465 MOL  40   MOL  C    6      0.000000       15.9994           0
    1466 MOL  40   MOL  C    7      0.000000       12.0110           0
    1467 MOL  40   MOL  C    8      0.000000       15.9994           0
    1468 MOL  40   MOL  C    9      0.000000       15.9994           0
    1469 MOL  40   MOL  C    10     0.000000        1.0080           0
    1470 MOL  40   MOL  C    10     0.000000        1.0080           0
    1471 MOL  40   MOL  C    10     0.000000        1.0080           0
    1472 MOL  40   MOL  C    10     0.000000        1.0080           0
    1473 MOL  40   MOL  C    10     0.000000        1.0080           0
    1474 MOL  40   MOL  C    10     0.000000        1.0080           0
    1475 MOL  40   MOL  C    10     0.000000        1.0080           0
    1476 MOL  40   MOL  C    10     0.000000        1.0080           0
    1477 MOL  40   MOL  C    10     0.000000        1.0080           0
    1478 MOL  40   MOL  C    10     0.000000        1.0080           0
    1479 MOL  40   MOL  C    10     0.000000        1.0080           0
    1480 MOL  40   MOL  C    10     0.000000        1.0080           0
    1481 MOL  40   MOL  C    10     0.000000        1.0080           0
    1482 MOL  40   MOL  C    10     0.000000        1.0080           0
    1483 MOL  41   MOL  C    2      0.000000       12.0112           0
    1484 MOL  41   MOL  C    3      0.000000       12.0112           0
    1485 MOL  41   MOL  C    3      0.000000       12.0112           0
    1486 MOL  41   MOL  C    3      0.000000       12.0112           0
    1487 MOL  41   MOL  C    3      0.000000       12.0112           0
    1488 MOL  41   MOL  C    3      0.000000       12.0112           0
    1489 MOL  41   MOL  C    4      0.000000       12.0112           0
    1490 MOL  41   MOL  C    3      0.000000       12.0112           0
    1491 MOL  41   MOL  C    3      0.000000       12.0112           0
    1492 MOL  41   MOL  C    3      0.000000       12.0112           0
    1493 MOL  41   MOL  C    3      0.000000       12.0112           0
    1494 MOL  41   MOL  C    3      0.000000       12.0112           0
    1495 MOL  41   MOL  C    3      0.000000       12.0112           0
    1496 MOL  41   MOL  C    5      0.000000       12.0112           0
    1497 MOL  41   MOL  C    5      0.000000       12.0112           0
    1498 MOL  41   MOL  C    6      0.000000       15.9994           0
    1499 MOL  41   MOL  C    7      0.000000       12.0110           0
    1500 MOL  41   MOL  C    8      0.000000       15.9994           0
    1501 MOL  41   MOL  C    9      0.000000       15.9994           0
    1502 MOL  41   MOL  C    10     0.000000        1.0080           0
    1503 MOL  41   MOL  C    10     0.000000        1.0080           0
    1504 MOL  41   MOL  C    10     0.000000        1.0080           0
    1505 MOL  41   MOL  C    10     0.000000        1.0080           0
    1506 MOL  41   MOL  C    10     0.000000        1.0080           0
    1507 MOL  41   MOL  C    10     0.000000        1.0080           0
    1508 MOL  41   MOL  C    10     0.000000        1.0080           0
    1509 MOL  41   MOL  C    10     0.000000        1.0080           0
    1510 MOL  41   MOL  C    10     0.000000        1.0080           0
    1511 MOL  41   MOL  C    10     0.000000        1.0080           0
    1512 MOL  41   MOL  C    10     0.000000        1.0080           0
    1513 MOL  41   MOL  C    10     0.000000        1.0080           0
    1514 MOL  41   MOL  C    10     0.000000        1.0080           0
    1515 MOL  41   MOL  C    10     0.000000        1.0080           0
    1516 MOL  42   MOL  C    2      0.000000       12.0112           0
    1517 MOL  42   MOL  C    3      0.000000       12.0112           0
    1518 MOL  42   MOL  C    3      0.000000       12.0112           0
    1519 MOL  42   MOL  C    3      0.000000       12.0112           0
    1520 MOL  42   MOL  C    3      0.000000       12.0112           0
    1521 MOL  42   MOL  C    3      0.000000       12.0112           0
    1522 MOL  42   MOL  C    4      0.000000       12.0112           0
    1523 MOL  42   MOL  C    3      0.000000       12.0112           0
    1524 MOL  42   MOL  C    3      0.000000       12.0112           0
    1525 MOL  42   MOL  C    3      0.000000       12.0112           0
    1526 MOL  42   MOL  C    3      0.000000       12.0112           0
    1527 MOL  42   MOL  C    3      0.000000       12.0112           0
    1528 MOL  42   MOL  C    3      0.000000       12.0112           0
    1529 MOL  42   MOL  C    5      0.000000       12.0112           0
    1530 MOL  42   MOL  C    5      0.000000       12.0112           0
    1531 MOL  42   MOL  C    6      0.000000       15.9994           0
    1532 MOL  42   MOL  C    7      0.000000       12.0110           0
    1533 MOL  42   MOL  C    8      0.000000       15.9994           0
    1534 MOL  42   MOL  C    9      0.000000       15.9994           0
    1535 MOL  42   MOL  C    10     0.000000        1.0080           0
    1536 MOL  42   MOL  C    10     0.000000        1.0080           0
    1537 MOL  42   MOL  C    10     0.000000        1.0080           0
    1538 MOL  42   MOL  C    10     0.000000        1.0080           0
    1539 MOL  42   MOL  C    10     0.000000        1.0080           0
    1540 MOL  42   MOL  C    10     0.000000        1.0080           0
    1541 MOL  42   MOL  C    10     0.000000        1.0080           0
    1542 MOL  42   MOL  C    10     0.000000        1.0080           0
    1543 MOL  42   MOL  C    10     0.000000        1.0080           0
    1544 MOL  42   MOL  C    10     0.000000        1.0080           0
    1545 MOL  42   MOL  C    10     0.000000        1.0080           0
    1546 MOL  42   MOL  C    10     0.000000        1.0080           0
    1547 MOL  42   MOL  C    10     0.000000        1.0080           0
    1548 MOL  42   MOL  C    10     0.000000        1.0080           0
    1549 MOL  43   MOL  C    2      0.000000       12.0112           0
    1550 MOL  43   MOL  C    3      0.000000       12.0112           0
    1551 MOL  43   MOL  C    3      0.000000       12.0112           0
    1552 MOL  43   MOL  C    3      0.000000       12.0112           0
    1553 MOL  43   MOL  C    3      0.000000       12.0112           0
    1554 MOL  43   MOL  C    3      0.000000       12.0112           0
    1555 MOL  43   MOL  C    4      0.000000       12.0112           0
    1556 MOL  43   MOL  C    3      0.000000       12.0112           0
    1557 MOL  43   MOL  C    3      0.000000       12.0112           0
    1558 MOL  43   MOL  C    3      0.000000       12.0112           0
    1559 MOL  43   MOL  C    3      0.000000       12.0112           0
    1560 MOL  43   MOL  C    3      0.000000       12.0112           0
    1561 MOL  43   MOL  C    3      0.000000       12.0112           0
    1562 MOL  43   MOL  C    5      0.000000       12.0112           0
    1563 MOL  43   MOL  C    5      0.000000       12.0112           0
    1564 MOL  43   MOL  C    6      0.000000       15.9994           0
    1565 MOL  43   MOL  C    7      0.000000       12.0110           0
    1566 MOL  43   MOL  C    8      0.000000       15.9994           0
    1567 MOL  43   MOL  C    9      0.000000       15.9994           0
    1568 MOL  43   MOL  C    10     0.000000        1.0080           0
    1569 MOL  43   MOL  C    10     0.000000        1.0080           0
    1570 MOL  43   MOL  C    10     0.000000        1.0080           0
    1571 MOL  43   MOL  C    10     0.000000        1.0080           0
    1572 MOL  43   MOL  C    10     0.000000        1.0080           0
    1573 MOL  43   MOL  C    10     0.000000        1.0080           0
    1574 MOL  43   MOL  C    10     0.000000        1.0080           0
    1575 MOL  43   MOL  C    10     0.000000        1.0080           0
    1576 MOL  43   MOL  C    10     0.000000        1.0080           0
    1577 MOL  43   MOL  C    10     0.000000        1.0080           0
    1578 MOL  43   MOL  C    10     0.000000        1.0080           0
    1579 MOL  43   MOL  C    10     0.000000        1.0080           0
    1580 MOL  43   MOL  C    10     0.000000        1.0080           0
    1581 MOL  43   MOL  C    10     0.000000        1.0080           0
    1582 MOL  44   MOL  C    2      0.000000       12.0112           0
    1583 MOL  44   MOL  C    3      0.000000       12.0112           0
    1584 MOL  44   MOL  C    3      0.000000       12.0112           0
    1585 MOL  44   MOL  C    3      0.000000       12.0112           0
    1586 MOL  44   MOL  C    3      0.000000       12.0112           0
    1587 MOL  44   MOL  C    3      0.000000       12.0112           0
    1588 MOL  44   MOL  C    4      0.000000       12.0112           0
    1589 MOL  44   MOL  C    3      0.000000       12.0112           0
    1590 MOL  44   MOL  C    3      0.000000       12.0112           0
    1591 MOL  44   MOL  C    3      0.000000       12.0112           0
    1592 MOL  44   MOL  C    3      0.000000       12.0112           0
    1593 MOL  44   MOL  C    3      0.000000       12.0112           0
    1594 MOL  44   MOL  C    3      0.000000       12.0112           0
    1595 MOL  44   MOL  C    5      0.000000       12.0112           0
    1596 MOL  44   MOL  C    5      0.000000       12.0112           0
    1597 MOL  44   MOL  C    6      0.000000       15.9994           0
    1598 MOL  44   MOL  C    7      0.000000       12.0110           0
    1599 MOL  44   MOL  C    8      0.000000       15.9994           0
    1600 MOL  44   MOL  C    9      0.000000       15.9994           0
    1601 MOL  44   MOL  C    10     0.000000        1.0080           0
    1602 MOL  44   MOL  C    10     0.000000        1.0080           0
    1603 MOL  44   MOL  C    10     0.000000        1.0080           0
    1604 MOL  44   MOL  C    10     0.000000        1.0080           0
    1605 MOL  44   MOL  C    10     0.000000        1.0080           0
    1606 MOL  44   MOL  C    10     0.000000        1.0080           0
    1607 MOL  44   MOL  C    10     0.000000        1.0080           0
    1608 MOL  44   MOL  C    10     0.000000        1.0080           0
    1609 MOL  44   MOL  C    10     0.000000        1.0080           0
    1610 MOL  44   MOL  C    10     0.000000        1.0080           0
    1611 MOL  44   MOL  C    10     0.000000        1.0080           0
    1612 MOL  44   MOL  C    10     0.000000        1.0080           0
    1613 MOL  44   MOL  C    10     0.000000        1.0080           0
    1614 MOL  44   MOL  C    10     0.000000        1.0080           0
    1615 MOL  45   MOL  C    2      0.000000       12.0112           0
    1616 MOL  45   MOL  C    3      0.000000       12.0112           0
    1617 MOL  45   MOL  C    3      0.000000       12.0112           0
    1618 MOL  45   MOL  C    3      0.000000       12.0112           0
    1619 MOL  45   MOL  C    3      0.000000       12.0112           0
    1620 MOL  45   MOL  C    3      0.000000       12.0112           0
    1621 MOL  45   MOL  C    4      0.000000       12.0112           0
    1622 MOL  45   MOL  C    3      0.000000       12.0112           0
    1623 MOL  45   MOL  C    3      0.000000       12.0112           0
    1624 MOL  45   MOL  C    3      0.000000       12.0112           0
    1625 MOL  45   MOL  C    3      0.000000       12.0112           0
    1626 MOL  45   MOL  C    3      0.000000       12.0112           0
    1627 MOL  45   MOL  C    3      0.000000       12.0112           0
    1628 MOL  45   MOL  C    5      0.000000       12.0112           0
    1629 MOL  45   MOL  C    5      0.000000       12.0112           0
    1630 MOL  45   MOL  C    6      0.000000       15.9994           0
    1631 MOL  45   MOL  C    7      0.000000       12.0110           0
    1632 MOL  45   MOL  C    8      0.000000       15.9994           0
    1633 MOL  45   MOL  C    9      0.000000       15.9994           0
    1634 MOL  45   MOL  C    10     0.000000        1.0080           0
    1635 MOL  45   MOL  C    10     0.000000        1.0080           0
    1636 MOL  45   MOL  C    10     0.000000        1.0080           0
    1637 MOL  45   MOL  C    10     0.000000        1.0080           0
    1638 MOL  45   MOL  C    10     0.000000        1.0080           0
    1639 MOL  45   MOL  C    10     0.000000        1.0080           0
    1640 MOL  45   MOL  C    10     0.000000        1.0080           0
    1641 MOL  45   MOL  C    10     0.000000        1.0080           0
    1642 MOL  45   MOL  C    10     0.000000        1.0080           0
    1643 MOL  45   MOL  C    10     0.000000        1.0080           0
    1644 MOL  45   MOL  C    10     0.000000        1.0080           0
    1645 MOL  45   MOL  C    10     0.000000        1.0080           0
    1646 MOL  45   MOL  C    10     0.000000        1.0080           0
    1647 MOL  45   MOL  C    10     0.000000        1.0080           0
    1648 MOL  46   MOL  C    2      0.000000       12.0112           0
    1649 MOL  46   MOL  C    3      0.000000       12.0112           0
    1650 MOL  46   MOL  C    3      0.000000       12.0112           0
    1651 MOL  46   MOL  C    3      0.000000       12.0112           0
    1652 MOL  46   MOL  C    3      0.000000       12.0112           0
    1653 MOL  46   MOL  C    3      0.000000       12.0112           0
    1654 MOL  46   MOL  C    4      0.000000       12.0112           0
    1655 MOL  46   MOL  C    3      0.000000       12.0112           0
    1656 MOL  46   MOL  C    3      0.000000       12.0112           0
    1657 MOL  46   MOL  C    3      0.000000       12.0112           0
    1658 MOL  46   MOL  C    3      0.000000       12.0112           0
    1659 MOL  46   MOL  C    3      0.000000       12.0112           0
    1660 MOL  46   MOL  C    3      0.000000       12.0112           0
    1661 MOL  46   MOL  C    5      0.000000       12.0112           0
    1662 MOL  46   MOL  C    5      0.000000       12.0112           0
    1663 MOL  46   MOL  C    6      0.000000       15.9994           0
    1664 MOL  46   MOL  C    7      0.000000       12.0110           0
    1665 MOL  46   MOL  C    8      0.000000       15.9994           0
    1666 MOL  46   MOL  C    9      0.000000       15.9994           0
    1667 MOL  46   MOL  C    10     0.000000        1.0080           0
    1668 MOL  46   MOL  C    10     0.000000        1.0080           0
    1669 MOL  46   MOL  C    10     0.000000        1.0080           0
    1670 MOL  46   MOL  C    10     0.000000        1.0080           0
    1671 MOL  46   MOL  C    10     0.000000        1.0080           0
    1672 MOL  46   MOL  C    10     0.000000        1.0080           0
    1673 MOL  46   MOL  C    10     0.000000        1.0080           0
    1674 MOL  46   MOL  C    10     0.000000        1.0080           0
    1675 MOL  46   MOL  C    10     0.000000        1.0080           0
    1676 MOL  46   MOL  C    10     0.000000        1.0080           0
    1677 MOL  46   MOL  C    10     0.000000        1.0080           0
    1678 MOL  46   MOL  C    10     0.000000        1.0080           0
    1679 MOL  46   MOL  C    10     0.000000        1.0080           0
    1680 MOL  46   MOL  C    10     0.000000        1.0080           0

    1900 !NBOND: bonds
       1       2       1       5       1       7       2       3
       2       8       3       4       3       9       4       5
       4      10       5       6       6      17       6      16
       7      18       7      19       8      11       8      20
       9      12       9      13      10      14      10      15
      11      12      11      24      12      25      13      14
      13      26      14      27      15      16      15      28
      16      29      17      18      17      30      18      22
      19      20      19      21      20      23      21      22
      21      31      22      39      23      24      23      32
      24      33      25      26      25      34      26      35
      27      28      27      36      28      38      29      30
      29      37      30      40      31      32      31      44
      32      41      33      34      33      42      34      49
      35      36      35      50      36      48      37      38
      37      46      38      47      39      40      39      43
      40      45      41      51      41      42      42      55
      43      44      43      52      44      51      45      46
      45      52      46      53      47      48      47      53
      48      54      49      50      49      55      50      54
      51      59      52      60      53      56      54      57
      55      58      56      60      56      57      57      58
      58      59      59      60      61      62      61      65
      61      67      62      63      62      68      63      64
      63      69      64      65      64      70      65      66
      66      77      66      76      67      78      67      79
      68      71      68      80      69      72      69      73
      70      74      70      75      71      72      71      84
      72      85      73      74      73      86      74      87
      75      76      75      88      76      89      77      78
      77      90      78      82      79      80      79      81
      80      83      81      82      81      91      82      99
      83      84      83      92      84      93      85      86
      85      94      86      95      87      88      87      96
      88      98      89      90      89      97      90     100
      91      92      91     104      92     101      93      94
      93     102      94     109      95      96      95     110
      96     108      97      98      97     106      98     107
      99     100      99     103     100     105     101     111
     101     102     102     115     103     104     103     112
     104     111     105     106     105     112     106     113
     107     108     107     113     108     114     109     110
     109     115     110     114     111     119     112     120
     113     116     114     117     115     118     116     120
     116     117     117     118     118     119     119     120
     121     122     121     125     121     127     122     123
     122     128     123     124     123     129     124     125
     124     130     125     126     126     137     126     136
     127     138     127     139     128     131     128     140
     129     132     129     133     130     134     130     135
     131     132     131     144     132     145     133     134
     133     146     134     147     135     136     135     148
     136     149     137     138     137     150     138     142
     139     140     139     141     140     143     141     142
     141     151     142     159     143     144     143     152
     144     153     145     146     145     154     146     155
     147     148     147     156     148     158     149     150
     149     157     150     160     151     152     151     164
     152     161     153     154     153     162     154     169
     155     156     155     170     156     168     157     158
     157     166     158     167     159     160     159     163
     160     165     161     171     161     162     162     175
     163     164     163     172     164     171     165     166
     165     172     166     173     167     168     167     173
     168     174     169     170     169     175     170     174
     171     179     172     180     173     176     174     177
     175     178     176     180     176     177     177     178
     178     179     179     180     181     182     181     185
     181     187     182     183     182     188     183     184
     183     189     184     185     184     190     185     186
     186     197     186     196     187     198     187     199
     188     191     188     200     189     192     189     193
     190     194     190     195     191     192     191     204
     192     205     193     194     193     206     194     207
     195     196     195     208     196     209     197     198
     197     210     198     202     199     200     199     201
     200     203     201     202     201     211     202     219
     203     204     203     212     204     213     205     206
     205     214     206     215     207     208     207     216
     208     218     209     210     209     217     210     220
     211     212     211     224     212     221     213     214
     213     222     214     229     215     216     215     230
     216     228     217     218     217     226     218     227
     219     220     219     223     220     225     221     231
     221     222     222     235     223     224     223     232
     224     231     225     226     225     232     226     233
     227     228     227     233     228     234     229     230
     229     235     230     234     231     239     232     240
     233     236     234     237     235     238     236     240
     236     237     237     238     238     239     239     240
     241     242     241     245     241     247     242     243
     242     248     243     244     243     249     244     245
     244     250     245     246     246     257     246     256
     247     258     247     259     248     251     248     260
     249     252     249     253     250     254     250     255
     251     252     251     264     252     265     253     254
     253     266     254     267     255     256     255     268
     256     269     257     258     257     270     258     262
     259     260     259     261     260     263     261     262
     261     271     262     279     263     264     263     272
     264     273     265     266     265     274     266     275
     267     268     267     276     268     278     269     270
     269     277     270     280     271     272     271     284
     272     281     273     274     273     282     274     289
     275     276     275     290     276     288     277     278
     277     286     278     287     279     280     279     283
     280     285     281     291     281     282     282     295
     283     284     283     292     284     291     285     286
     285     292     286     293     287     288     287     293
     288     294     289     290     289     295     290     294
     291     299     292     300     293     296     294     297
     295     298     296     300     296     297     297     298
     298     299     299     300     301     302     301     305
     301     307     302     303     302     308     303     304
     303     309     304     305     304     310     305     306
     306     317     306     316     307     318     307     319
     308     311     308     320     309     312     309     313
     310     314     310     315     311     312     311     324
     312     325     313     314     313     326     314     327
     315     316     315     328     316     329     317     318
     317     330     318     322     319     320     319     321
     320     323     321     322     321     331     322     339
     323     324     323     332     324     333     325     326
     325     334     326     335     327     328     327     336
     328     338     329     330     329     337     330     340
     331     332     331     344     332     341     333     334
     333     342     334     349     335     336     335     350
     336     348     337     338     337     346     338     347
     339     340     339     343     340     345     341     351
     341     342     342     355     343     344     343     352
     344     351     345     346     345     352     346     353
     347     348     347     353     348     354     349     350
     349     355     350     354     351     359     352     360
     353     356     354     357     355     358     356     360
     356     357     357     358     358     359     359     360
     362     363     363     364     364     365     365     366
     362     361     366     361     367     364     367     368
     369     370     370     371     371     372     372     373
     368     369     368     373     367     374     367     375
     371     376     377     376     377     378     377     379
     362     380     363     381     365     382     366     383
     369     384     370     385     372     386     373     387
     374     388     374     389     374     390     375     391
     375     392     375     393     395     396     396     397
     397     398     398     399     395     394     399     394
     400     397     400     401     402     403     403     404
     404     405     405     406     401     402     401     406
     400     407     400     408     404     409     410     409
     410     411     410     412     395     413     396     414
     398     415     399     416     402     417     403     418
     405     419     406     420     407     421     407     422
     407     423     408     424     408     425     408     426
     428     429     429     430     430     431     431     432
     428     427     432     427     433     430     433     434
     435     436     436     437     437     438     438     439
     434     435     434     439     433     440     433     441
     437     442     443     442     443     444     443     445
     428     446     429     447     431     448     432     449
     435     450     436     451     438     452     439     453
     440     454     440     455     440     456     441     457
     441     458     441     459     461     462     462     463
     463     464     464     465     461     460     465     460
     466     463     466     467     468     469     469     470
     470     471     471     472     467     468     467     472
     466     473     466     474     470     475     476     475
     476     477     476     478     461     479     462     480
     464     481     465     482     468     483     469     484
     471     485     472     486     473     487     473     488
     473     489     474     490     474     491     474     492
     494     495     495     496     496     497     497     498
     494     493     498     493     499     496     499     500
     501     502     502     503     503     504     504     505
     500     501     500     505     499     506     499     507
     503     508     509     508     509     510     509     511
     494     512     495     513     497     514     498     515
     501     516     502     517     504     518     505     519
     506     520     506     521     506     522     507     523
     507     524     507     525     527     528     528     529
     529     530     530     531     527     526     531     526
     532     529     532     533     534     535     535     536
     536     537     537     538     533     534     533     538
     532     539     532     540     536     541     542     541
     542     543     542     544     527     545     528     546
     530     547     531     548     534     549     535     550
     537     551     538     552     539     553     539     554
     539     555     540     556     540     557     540     558
     560     561     561     562     562     563     563     564
     560     559     564     559     565     562     565     566
     567     568     568     569     569     570     570     571
     566     567     566     571     565     572     565     573
     569     574     575     574     575     576     575     577
     560     578     561     579     563     580     564     581
     567     582     568     583     570     584     571     585
     572     586     572     587     572     588     573     589
     573     590     573     591     593     594     594     595
     595     596     596     597     593     592     597     592
     598     595     598     599     600     601     601     602
     602     603     603     604     599     600     599     604
     598     605     598     606     602     607     608     607
     608     609     608     610     593     611     594     612
     596     613     597     614     600     615     601     616
     603     617     604     618     605     619     605     620
     605     621     606     622     606     623     606     624
     626     627     627     628     628     629     629     630
     626     625     630     625     631     628     631     632
     633     634     634     635     635     636     636     637
     632     633     632     637     631     638     631     639
     635     640     641     640     641     642     641     643
     626     644     627     645     629     646     630     647
     633     648     634     649     636     650     637     651
     638     652     638     653     638     654     639     655
     639     656     639     657     659     660     660     661
     661     662     662     663     659     658     663     658
     664     661     664     665     666     667     667     668
     668     669     669     670     665     666     665     670
     664     671     664     672     668     673     674     673
     674     675     674     676     659     677     660     678
     662     679     663     680     666     681     667     682
     669     683     670     684     671     685     671     686
     671     687     672     688     672     689     672     690
     692     693     693     694     694     695     695     696
     692     691     696     691     697     694     697     698
     699     700     700     701     701     702     702     703
     698     699     698     703     697     704     697     705
     701     706     707     706     707     708     707     709
     692     710     693     711     695     712     696     713
     699     714     700     715     702     716     703     717
     704     718     704     719     704     720     705     721
     705     722     705     723     725     726     726     727
     727     728     728     729     725     724     729     724
     730     727     730     731     732     733     733     734
     734     735     735     736     731     732     731     736
     730     737     730     738     734     739     740     739
     740     741     740     742     725     743     726     744
     728     745     729     746     732     747     733     748
     735     749     736     750     737     751     737     752
     737     753     738     754     738     755     738     756
     758     759     759     760     760     761     761     762
     758     757     762     757     763     760     763     764
     765     766     766     767     767     768     768     769
     764     765     764     769     763     770     763     771
     767     772     773     772     773     774     773     775
     758     776     759     777     761     778     762     779
     765     780     766     781     768     782     769     783
     770     784     770     785     770     786     771     787
     771     788     771     789     791     792     792     793
     793     794     794     795     791     790     795     790
     796     793     796     797     798     799     799     800
     800     801     801     802     797     798     797     802
     796     803     796     804     800     805     806     805
     806     807     806     808     791     809     792     810
     794     811     795     812     798     813     799     814
     801     815     802     816     803     817     803     818
     803     819     804     820     804     821     804     822
     824     825     825     826     826     827     827     828
     824     823     828     823     829     826     829     830
     831     832     832     833     833     834     834     835
     830     831     830     835     829     836     829     837
     833     838     839     838     839     840     839     841
     824     842     825     843     827     844     828     845
     831     846     832     847     834     848     835     849
     836     850     836     851     836     852     837     853
     837     854     837     855     857     858     858     859
     859     860     860     861     857     856     861     856
     862     859     862     863     864     865     865     866
     866     867     867     868     863     864     863     868
     862     869     862     870     866     871     872     871
     872     873     872     874     857     875     858     876
     860     877     861     878     864     879     865     880
     867     881     868     882     869     883     869     884
     869     885     870     886     870     887     870     888
     890     891     891     892     892     893     893     894
     890     889     894     889     895     892     895     896
     897     898     898     899     899     900     900     901
     896     897     896     901     895     902     895     903
     899     904     905     904     905     906     905     907
     890     908     891     909     893     910     894     911
     897     912     898     913     900     914     901     915
     902     916     902     917     902     918     903     919
     903     920     903     921     923     924     924     925
     925     926     926     927     923     922     927     922
     928     925     928     929     930     931     931     932
     932     933     933     934     929     930     929     934
     928     935     928     936     932     937     938     937
     938     939     938     940     923     941     924     942
     926     943     927     944     930     945     931     946
     933     947     934     948     935     949     935     950
     935     951     936     952     936     953     936     954
     956     957     957     958     958     959     959     960
     956     955     960     955     961     958     961     962
     963     964     964     965     965     966     966     967
     962     963     962     967     961     968     961     969
     965     970     971     970     971     972     971     973
     956     974     957     975     959     976     960     977
     963     978     964     979     966     980     967     981
     968     982     968     983     968     984     969     985
     969     986     969     987     989     990     990     991
     991     992     992     993     989     988     993     988
     994     991     994     995     996     997     997     998
     998     999     999    1000     995     996     995    1000
     994    1001     994    1002     998    1003    1004    1003
    1004    1005    1004    1006     989    1007     990    1008
     992    1009     993    1010     996    1011     997    1012
     999    1013    1000    1014    1001    1015    1001    1016
    1001    1017    1002    1018    1002    1019    1002    1020
    1022    1023    1023    1024    1024    1025    1025    1026
    1022    1021    1026    1021    1027    1024    1027    1028
    1029    1030    1030    1031    1031    1032    1032    1033
    1028    1029    1028    1033    1027    1034    1027    1035
    1031    1036    1037    1036    1037    1038    1037    1039
    1022    1040    1023    1041    1025    1042    1026    1043
    1029    1044    1030    1045    1032    1046    1033    1047
    1034    1048    1034    1049    1034    1050    1035    1051
    1035    1052    1035    1053    1055    1056    1056    1057
    1057    1058    1058    1059    1055    1054    1059    1054
    1060    1057    1060    1061    1062    1063    1063    1064
    1064    1065    1065    1066    1061    1062    1061    1066
    1060    1067    1060    1068    1064    1069    1070    1069
    1070    1071    1070    1072    1055    1073    1056    1074
    1058    1075    1059    1076    1062    1077    1063    1078
    1065    1079    1066    1080    1067    1081    1067    1082
    1067    1083    1068    1084    1068    1085    1068    1086
    1088    1089    1089    1090    1090    1091    1091    1092
    1088    1087    1092    1087    1093    1090    1093    1094
    1095    1096    1096    1097    1097    1098    1098    1099
    1094    1095    1094    1099    1093    1100    1093    1101
    1097    1102    1103    1102    1103    1104    1103    1105
    1088    1106    1089    1107    1091    1108    1092    1109
    1095    1110    1096    1111    1098    1112    1099    1113
    1100    1114    1100    1115    1100    1116    1101    1117
    1101    1118    1101    1119    1121    1122    1122    1123
    1123    1124    1124    1125    1121    1120    1125    1120
    1126    1123    1126    1127    1128    1129    1129    1130
    1130    1131    1131    1132    1127    1128    1127    1132
    1126    1133    1126    1134    1130    1135    1136    1135
    1136    1137    1136    1138    1121    1139    1122    1140
    1124    1141    1125    1142    1128    1143    1129    1144
    1131    1145    1132    1146    1133    1147    1133    1148
    1133    1149    1134    1150    1134    1151    1134    1152
    1154    1155    1155    1156    1156    1157    1157    1158
    1154    1153    1158    1153    1159    1156    1159    1160
    1161    1162    1162    1163    1163    1164    1164    1165
    1160    1161    1160    1165    1159    1166    1159    1167
    1163    1168    1169    1168    1169    1170    1169    1171
    1154    1172    1155    1173    1157    1174    1158    1175
    1161    1176    1162    1177    1164    1178    1165    1179
    1166    1180    1166    1181    1166    1182    1167    1183
    1167    1184    1167    1185    1187    1188    1188    1189
    1189    1190    1190    1191    1187    1186    1191    1186
    1192    1189    1192    1193    1194    1195    1195    1196
    1196    1197    1197    1198    1193    1194    1193    1198
    1192    1199    1192    1200    1196    1201    1202    1201
    1202    1203    1202    1204    1187    1205    1188    1206
    1190    1207    1191    1208    1194    1209    1195    1210
    1197    1211    1198    1212    1199    1213    1199    1214
    1199    1215    1200    1216    1200    1217    1200    1218
    1220    1221    1221    1222    1222    1223    1223    1224
    1220    1219    1224    1219    1225    1222    1225    1226
    1227    1228    1228    1229    1229    1230    1230    1231
    1226    1227    1226    1231    1225    1232    1225    1233
    1229    1234    1235    1234    1235    1236    1235    1237
    1220    1238    1221    1239    1223    1240    1224    1241
    1227    1242    1228    1243    1230    1244    1231    1245
    1232    1246    1232    1247    1232    1248    1233    1249
    1233    1250    1233    1251    1253    1254    1254    1255
    1255    1256    1256    1257    1253    1252    1257    1252
    1258    1255    1258    1259    1260    1261    1261    1262
    1262    1263    1263    1264    1259    1260    1259    1264
    1258    1265    1258    1266    1262    1267    1268    1267
    1268    1269    1268    1270    1253    1271    1254    1272
    1256    1273    1257    1274    1260    1275    1261    1276
    1263    1277    1264    1278    1265    1279    1265    1280
    1265    1281    1266    1282    1266    1283    1266    1284
    1286    1287    1287    1288    1288    1289    1289    1290
    1286    1285    1290    1285    1291    1288    1291    1292
    1293    1294    1294    1295    1295    1296    1296    1297
    1292    1293    1292    1297    1291    1298    1291    1299
    1295    1300    1301    1300    1301    1302    1301    1303
    1286    1304    1287    1305    1289    1306    1290    1307
    1293    1308    1294    1309    1296    1310    1297    1311
    1298    1312    1298    1313    1298    1314    1299    1315
    1299    1316    1299    1317    1319    1320    1320    1321
    1321    1322    1322    1323    1319    1318    1323    1318
    1324    1321    1324    1325    1326    1327    1327    1328
    1328    1329    1329    1330    1325    1326    1325    1330
    1324    1331    1324    1332    1328    1333    1334    1333
    1334    1335    1334    1336    1319    1337    1320    1338
    1322    1339    1323    1340    1326    1341    1327    1342
    1329    1343    1330    1344    1331    1345    1331    1346
    1331    1347    1332    1348    1332    1349    1332    1350
    1352    1353    1353    1354    1354    1355    1355    1356
    1352    1351    1356    1351    1357    1354    1357    1358
    1359    1360    1360    1361    1361    1362    1362    1363
    1358    1359    1358    1363    1357    1364    1357    1365
    1361    1366    1367    1366    1367    1368    1367    1369
    1352    1370    1353    1371    1355    1372    1356    1373
    1359    1374    1360    1375    1362    1376    1363    1377
    1364    1378    1364    1379    1364    1380    1365    1381
    1365    1382    1365    1383    1385    1386    1386    1387
    1387    1388    1388    1389    1385    1384    1389    1384
    1390    1387    1390    1391    1392    1393    1393    1394
    1394    1395    1395    1396    1391    1392    1391    1396
    1390    1397    1390    1398    1394    1399    1400    1399
    1400    1401    1400    1402    1385    1403    1386    1404
    1388    1405    1389    1406    1392    1407    1393    1408
    1395    1409    1396    1410    1397    1411    1397    1412
    1397    1413    1398    1414    1398    1415    1398    1416
    1418    1419    1419    1420    1420    1421    1421    1422
    1418    1417    1422    1417    1423    1420    1423    1424
    1425    1426    1426    1427    1427    1428    1428    1429
    1424    1425    1424    1429    1423    1430    1423    1431
    1427    1432    1433    1432    1433    1434    1433    1435
    1418    1436    1419    1437    1421    1438    1422    1439
    1425    1440    1426    1441    1428    1442    1429    1443
    1430    1444    1430    1445    1430    1446    1431    1447
    1431    1448    1431    1449    1451    1452    1452    1453
    1453    1454    1454    1455    1451    1450    1455    1450
    1456    1453    1456    1457    1458    1459    1459    1460
    1460    1461    1461    1462    1457    1458    1457    1462
    1456    1463    1456    1464    1460    1465    1466    1465
    1466    1467    1466    1468    1451    1469    1452    1470
    1454    1471    1455    1472    1458    1473    1459    1474
    1461    1475    1462    1476    1463    1477    1463    1478
    1463    1479    1464    1480    1464    1481    1464    1482
    1484    1485    1485    1486    1486    1487    1487    1488
    1484    1483    1488    1483    1489    1486    1489    1490
    1491    1492    1492    1493    1493    1494    1494    1495
    1490    1491    1490    1495    1489    1496    1489    1497
    1493    1498    1499    1498    1499    1500    1499    1501
    1484    1502    1485    1503    1487    1504    1488    1505
    1491    1506    1492    1507    1494    1508    1495    1509
    1496    1510    1496    1511    1496    1512    1497    1513
    1497    1514    1497    1515    1517    1518    1518    1519
    1519    1520    1520    1521    1517    1516    1521    1516
    1522    1519    1522    1523    1524    1525    1525    1526
    1526    1527    1527    1528    1523    1524    1523    1528
    1522    1529    1522    1530    1526    1531    1532    1531
    1532    1533    1532    1534    1517    1535    1518    1536
    1520    1537    1521    1538    1524    1539    1525    1540
    1527    1541    1528    1542    1529    1543    1529    1544
    1529    1545    1530    1546    1530    1547    1530    1548
    1550    1551    1551    1552    1552    1553    1553    1554
    1550    1549    1554    1549    1555    1552    1555    1556
    1557    1558    1558    1559    1559    1560    1560    1561
    1556    1557    1556    1561    1555    1562    1555    1563
    1559    1564    1565    1564    1565    1566    1565    1567
    1550    1568    1551    1569    1553    1570    1554    1571
    1557    1572    1558    1573    1560    1574    1561    1575
    1562    1576    1562    1577    1562    1578    1563    1579
    1563    1580    1563    1581    1583    1584    1584    1585
    1585    1586    1586    1587    1583    1582    1587    1582
    1588    1585    1588    1589    1590    1591    1591    1592
    1592    1593    1593    1594    1589    1590    1589    1594
    1588    1595    1588    1596    1592    1597    1598    1597
    1598    1599    1598    1600    1583    1601    1584    1602
    1586    1603    1587    1604    1590    1605    1591    1606
    1593    1607    1594    1608    1595    1609    1595    1610
    1595    1611    1596    1612    1596    1613    1596    1614
    1616    1617    1617    1618    1618    1619    1619    1620
    1616    1615    1620    1615    1621    1618    1621    1622
    1623    1624    1624    1625    1625    1626    1626    1627
    1622    1623    1622    1627    1621    1628    1621    1629
    1625    1630    1631    1630    1631    1632    1631    1633
    1616    1634    1617    1635    1619    1636    1620    1637
    1623    1638    1624    1639    1626    1640    1627    1641
    1628    1642    1628    1643    1628    1644    1629    1645
    1629    1646    1629    1647    1649    1650    1650    1651
    1651    1652    1652    1653    1649    1648    1653    1648
    1654    1651    1654    1655    1656    1657    1657    1658
    1658    1659    1659    1660    1655    1656    1655    1660
    1654    1661    1654    1662    1658    1663    1664    1663
    1664    1665    1664    1666    1649    1667    1650    1668
    1652    1669    1653    1670    1656    1671    1657    1672
    1659    1673    1660    1674    1661    1675    1661    1676
    1661    1677    1662    1678    1662    1679    1662    1680
