PSF

       3 !TITLE
 REMARKS Polycarbonate monomer
 REMARKS Generated with Polymatic
 REMARKS To be used with coordinates file in VMD

      33 !NATOM
       1 MOL  1    MOL  C    2      0.000000       12.0112           0
       2 MOL  1    MOL  C    3      0.000000       12.0112           0
       3 MOL  1    MOL  C    3      0.000000       12.0112           0
       4 MOL  1    MOL  C    3      0.000000       12.0112           0
       5 MOL  1    MOL  C    3      0.000000       12.0112           0
       6 MOL  1    MOL  C    3      0.000000       12.0112           0
       7 MOL  1    MOL  C    4      0.000000       12.0112           0
       8 MOL  1    MOL  C    3      0.000000       12.0112           0
       9 MOL  1    MOL  C    3      0.000000       12.0112           0
      10 MOL  1    MOL  C    3      0.000000       12.0112           0
      11 MOL  1    MOL  C    3      0.000000       12.0112           0
      12 MOL  1    MOL  C    3      0.000000       12.0112           0
      13 MOL  1    MOL  C    3      0.000000       12.0112           0
      14 MOL  1    MOL  C    5      0.000000       12.0112           0
      15 MOL  1    MOL  C    5      0.000000       12.0112           0
      16 MOL  1    MOL  C    6      0.000000       15.9994           0
      17 MOL  1    MOL  C    7      0.000000       12.0110           0
      18 MOL  1    MOL  C    8      0.000000       15.9994           0
      19 MOL  1    MOL  C    9      0.000000       15.9994           0
      20 MOL  1    MOL  C    10     0.000000        1.0080           0
      21 MOL  1    MOL  C    10     0.000000        1.0080           0
      22 MOL  1    MOL  C    10     0.000000        1.0080           0
      23 MOL  1    MOL  C    10     0.000000        1.0080           0
      24 MOL  1    MOL  C    10     0.000000        1.0080           0
      25 MOL  1    MOL  C    10     0.000000        1.0080           0
      26 MOL  1    MOL  C    10     0.000000        1.0080           0
      27 MOL  1    MOL  C    10     0.000000        1.0080           0
      28 MOL  1    MOL  C    10     0.000000        1.0080           0
      29 MOL  1    MOL  C    10     0.000000        1.0080           0
      30 MOL  1    MOL  C    10     0.000000        1.0080           0
      31 MOL  1    MOL  C    10     0.000000        1.0080           0
      32 MOL  1    MOL  C    10     0.000000        1.0080           0
      33 MOL  1    MOL  C    10     0.000000        1.0080           0

      34 !NBOND: bonds
       2       3       3       4       4       5       5       6
       2       1       6       1       7       4       7       8
       9      10      10      11      11      12      12      13
       8       9       8      13       7      14       7      15
      11      16      17      16      17      18      17      19
       2      20       3      21       5      22       6      23
       9      24      10      25      12      26      13      27
      14      28      14      29      14      30      15      31
      15      32      15      33
