PSF

       3 !TITLE
 REMARKS Random packing of 45 x 'ps_monomer.lmps'
 REMARKS Generated with Polymatic
 REMARKS To be used with coordinates file in VMD

     720 !NATOM
       1 MOL  1    MOL  C    1      0.000000       12.0112           0
       2 MOL  1    MOL  C    1      0.000000       12.0112           0
       3 MOL  1    MOL  C    1      0.000000       12.0112           0
       4 MOL  1    MOL  C    1      0.000000       12.0112           0
       5 MOL  1    MOL  C    1      0.000000       12.0112           0
       6 MOL  1    MOL  C    1      0.000000       12.0112           0
       7 MOL  1    MOL  C    2      0.000000       12.0112           0
       8 MOL  1    MOL  C    3      0.000000       12.0112           0
       9 MOL  1    MOL  C    4      0.000000        1.0080           0
      10 MOL  1    MOL  C    4      0.000000        1.0080           0
      11 MOL  1    MOL  C    4      0.000000        1.0080           0
      12 MOL  1    MOL  C    4      0.000000        1.0080           0
      13 MOL  1    MOL  C    4      0.000000        1.0080           0
      14 MOL  1    MOL  C    4      0.000000        1.0080           0
      15 MOL  1    MOL  C    4      0.000000        1.0080           0
      16 MOL  1    MOL  C    4      0.000000        1.0080           0
      17 MOL  2    MOL  C    1      0.000000       12.0112           0
      18 MOL  2    MOL  C    1      0.000000       12.0112           0
      19 MOL  2    MOL  C    1      0.000000       12.0112           0
      20 MOL  2    MOL  C    1      0.000000       12.0112           0
      21 MOL  2    MOL  C    1      0.000000       12.0112           0
      22 MOL  2    MOL  C    1      0.000000       12.0112           0
      23 MOL  2    MOL  C    2      0.000000       12.0112           0
      24 MOL  2    MOL  C    3      0.000000       12.0112           0
      25 MOL  2    MOL  C    4      0.000000        1.0080           0
      26 MOL  2    MOL  C    4      0.000000        1.0080           0
      27 MOL  2    MOL  C    4      0.000000        1.0080           0
      28 MOL  2    MOL  C    4      0.000000        1.0080           0
      29 MOL  2    MOL  C    4      0.000000        1.0080           0
      30 MOL  2    MOL  C    4      0.000000        1.0080           0
      31 MOL  2    MOL  C    4      0.000000        1.0080           0
      32 MOL  2    MOL  C    4      0.000000        1.0080           0
      33 MOL  3    MOL  C    1      0.000000       12.0112           0
      34 MOL  3    MOL  C    1      0.000000       12.0112           0
      35 MOL  3    MOL  C    1      0.000000       12.0112           0
      36 MOL  3    MOL  C    1      0.000000       12.0112           0
      37 MOL  3    MOL  C    1      0.000000       12.0112           0
      38 MOL  3    MOL  C    1      0.000000       12.0112           0
      39 MOL  3    MOL  C    2      0.000000       12.0112           0
      40 MOL  3    MOL  C    3      0.000000       12.0112           0
      41 MOL  3    MOL  C    4      0.000000        1.0080           0
      42 MOL  3    MOL  C    4      0.000000        1.0080           0
      43 MOL  3    MOL  C    4      0.000000        1.0080           0
      44 MOL  3    MOL  C    4      0.000000        1.0080           0
      45 MOL  3    MOL  C    4      0.000000        1.0080           0
      46 MOL  3    MOL  C    4      0.000000        1.0080           0
      47 MOL  3    MOL  C    4      0.000000        1.0080           0
      48 MOL  3    MOL  C    4      0.000000        1.0080           0
      49 MOL  4    MOL  C    1      0.000000       12.0112           0
      50 MOL  4    MOL  C    1      0.000000       12.0112           0
      51 MOL  4    MOL  C    1      0.000000       12.0112           0
      52 MOL  4    MOL  C    1      0.000000       12.0112           0
      53 MOL  4    MOL  C    1      0.000000       12.0112           0
      54 MOL  4    MOL  C    1      0.000000       12.0112           0
      55 MOL  4    MOL  C    2      0.000000       12.0112           0
      56 MOL  4    MOL  C    3      0.000000       12.0112           0
      57 MOL  4    MOL  C    4      0.000000        1.0080           0
      58 MOL  4    MOL  C    4      0.000000        1.0080           0
      59 MOL  4    MOL  C    4      0.000000        1.0080           0
      60 MOL  4    MOL  C    4      0.000000        1.0080           0
      61 MOL  4    MOL  C    4      0.000000        1.0080           0
      62 MOL  4    MOL  C    4      0.000000        1.0080           0
      63 MOL  4    MOL  C    4      0.000000        1.0080           0
      64 MOL  4    MOL  C    4      0.000000        1.0080           0
      65 MOL  5    MOL  C    1      0.000000       12.0112           0
      66 MOL  5    MOL  C    1      0.000000       12.0112           0
      67 MOL  5    MOL  C    1      0.000000       12.0112           0
      68 MOL  5    MOL  C    1      0.000000       12.0112           0
      69 MOL  5    MOL  C    1      0.000000       12.0112           0
      70 MOL  5    MOL  C    1      0.000000       12.0112           0
      71 MOL  5    MOL  C    2      0.000000       12.0112           0
      72 MOL  5    MOL  C    3      0.000000       12.0112           0
      73 MOL  5    MOL  C    4      0.000000        1.0080           0
      74 MOL  5    MOL  C    4      0.000000        1.0080           0
      75 MOL  5    MOL  C    4      0.000000        1.0080           0
      76 MOL  5    MOL  C    4      0.000000        1.0080           0
      77 MOL  5    MOL  C    4      0.000000        1.0080           0
      78 MOL  5    MOL  C    4      0.000000        1.0080           0
      79 MOL  5    MOL  C    4      0.000000        1.0080           0
      80 MOL  5    MOL  C    4      0.000000        1.0080           0
      81 MOL  6    MOL  C    1      0.000000       12.0112           0
      82 MOL  6    MOL  C    1      0.000000       12.0112           0
      83 MOL  6    MOL  C    1      0.000000       12.0112           0
      84 MOL  6    MOL  C    1      0.000000       12.0112           0
      85 MOL  6    MOL  C    1      0.000000       12.0112           0
      86 MOL  6    MOL  C    1      0.000000       12.0112           0
      87 MOL  6    MOL  C    2      0.000000       12.0112           0
      88 MOL  6    MOL  C    3      0.000000       12.0112           0
      89 MOL  6    MOL  C    4      0.000000        1.0080           0
      90 MOL  6    MOL  C    4      0.000000        1.0080           0
      91 MOL  6    MOL  C    4      0.000000        1.0080           0
      92 MOL  6    MOL  C    4      0.000000        1.0080           0
      93 MOL  6    MOL  C    4      0.000000        1.0080           0
      94 MOL  6    MOL  C    4      0.000000        1.0080           0
      95 MOL  6    MOL  C    4      0.000000        1.0080           0
      96 MOL  6    MOL  C    4      0.000000        1.0080           0
      97 MOL  7    MOL  C    1      0.000000       12.0112           0
      98 MOL  7    MOL  C    1      0.000000       12.0112           0
      99 MOL  7    MOL  C    1      0.000000       12.0112           0
     100 MOL  7    MOL  C    1      0.000000       12.0112           0
     101 MOL  7    MOL  C    1      0.000000       12.0112           0
     102 MOL  7    MOL  C    1      0.000000       12.0112           0
     103 MOL  7    MOL  C    2      0.000000       12.0112           0
     104 MOL  7    MOL  C    3      0.000000       12.0112           0
     105 MOL  7    MOL  C    4      0.000000        1.0080           0
     106 MOL  7    MOL  C    4      0.000000        1.0080           0
     107 MOL  7    MOL  C    4      0.000000        1.0080           0
     108 MOL  7    MOL  C    4      0.000000        1.0080           0
     109 MOL  7    MOL  C    4      0.000000        1.0080           0
     110 MOL  7    MOL  C    4      0.000000        1.0080           0
     111 MOL  7    MOL  C    4      0.000000        1.0080           0
     112 MOL  7    MOL  C    4      0.000000        1.0080           0
     113 MOL  8    MOL  C    1      0.000000       12.0112           0
     114 MOL  8    MOL  C    1      0.000000       12.0112           0
     115 MOL  8    MOL  C    1      0.000000       12.0112           0
     116 MOL  8    MOL  C    1      0.000000       12.0112           0
     117 MOL  8    MOL  C    1      0.000000       12.0112           0
     118 MOL  8    MOL  C    1      0.000000       12.0112           0
     119 MOL  8    MOL  C    2      0.000000       12.0112           0
     120 MOL  8    MOL  C    3      0.000000       12.0112           0
     121 MOL  8    MOL  C    4      0.000000        1.0080           0
     122 MOL  8    MOL  C    4      0.000000        1.0080           0
     123 MOL  8    MOL  C    4      0.000000        1.0080           0
     124 MOL  8    MOL  C    4      0.000000        1.0080           0
     125 MOL  8    MOL  C    4      0.000000        1.0080           0
     126 MOL  8    MOL  C    4      0.000000        1.0080           0
     127 MOL  8    MOL  C    4      0.000000        1.0080           0
     128 MOL  8    MOL  C    4      0.000000        1.0080           0
     129 MOL  9    MOL  C    1      0.000000       12.0112           0
     130 MOL  9    MOL  C    1      0.000000       12.0112           0
     131 MOL  9    MOL  C    1      0.000000       12.0112           0
     132 MOL  9    MOL  C    1      0.000000       12.0112           0
     133 MOL  9    MOL  C    1      0.000000       12.0112           0
     134 MOL  9    MOL  C    1      0.000000       12.0112           0
     135 MOL  9    MOL  C    2      0.000000       12.0112           0
     136 MOL  9    MOL  C    3      0.000000       12.0112           0
     137 MOL  9    MOL  C    4      0.000000        1.0080           0
     138 MOL  9    MOL  C    4      0.000000        1.0080           0
     139 MOL  9    MOL  C    4      0.000000        1.0080           0
     140 MOL  9    MOL  C    4      0.000000        1.0080           0
     141 MOL  9    MOL  C    4      0.000000        1.0080           0
     142 MOL  9    MOL  C    4      0.000000        1.0080           0
     143 MOL  9    MOL  C    4      0.000000        1.0080           0
     144 MOL  9    MOL  C    4      0.000000        1.0080           0
     145 MOL  10   MOL  C    1      0.000000       12.0112           0
     146 MOL  10   MOL  C    1      0.000000       12.0112           0
     147 MOL  10   MOL  C    1      0.000000       12.0112           0
     148 MOL  10   MOL  C    1      0.000000       12.0112           0
     149 MOL  10   MOL  C    1      0.000000       12.0112           0
     150 MOL  10   MOL  C    1      0.000000       12.0112           0
     151 MOL  10   MOL  C    2      0.000000       12.0112           0
     152 MOL  10   MOL  C    3      0.000000       12.0112           0
     153 MOL  10   MOL  C    4      0.000000        1.0080           0
     154 MOL  10   MOL  C    4      0.000000        1.0080           0
     155 MOL  10   MOL  C    4      0.000000        1.0080           0
     156 MOL  10   MOL  C    4      0.000000        1.0080           0
     157 MOL  10   MOL  C    4      0.000000        1.0080           0
     158 MOL  10   MOL  C    4      0.000000        1.0080           0
     159 MOL  10   MOL  C    4      0.000000        1.0080           0
     160 MOL  10   MOL  C    4      0.000000        1.0080           0
     161 MOL  11   MOL  C    1      0.000000       12.0112           0
     162 MOL  11   MOL  C    1      0.000000       12.0112           0
     163 MOL  11   MOL  C    1      0.000000       12.0112           0
     164 MOL  11   MOL  C    1      0.000000       12.0112           0
     165 MOL  11   MOL  C    1      0.000000       12.0112           0
     166 MOL  11   MOL  C    1      0.000000       12.0112           0
     167 MOL  11   MOL  C    2      0.000000       12.0112           0
     168 MOL  11   MOL  C    3      0.000000       12.0112           0
     169 MOL  11   MOL  C    4      0.000000        1.0080           0
     170 MOL  11   MOL  C    4      0.000000        1.0080           0
     171 MOL  11   MOL  C    4      0.000000        1.0080           0
     172 MOL  11   MOL  C    4      0.000000        1.0080           0
     173 MOL  11   MOL  C    4      0.000000        1.0080           0
     174 MOL  11   MOL  C    4      0.000000        1.0080           0
     175 MOL  11   MOL  C    4      0.000000        1.0080           0
     176 MOL  11   MOL  C    4      0.000000        1.0080           0
     177 MOL  12   MOL  C    1      0.000000       12.0112           0
     178 MOL  12   MOL  C    1      0.000000       12.0112           0
     179 MOL  12   MOL  C    1      0.000000       12.0112           0
     180 MOL  12   MOL  C    1      0.000000       12.0112           0
     181 MOL  12   MOL  C    1      0.000000       12.0112           0
     182 MOL  12   MOL  C    1      0.000000       12.0112           0
     183 MOL  12   MOL  C    2      0.000000       12.0112           0
     184 MOL  12   MOL  C    3      0.000000       12.0112           0
     185 MOL  12   MOL  C    4      0.000000        1.0080           0
     186 MOL  12   MOL  C    4      0.000000        1.0080           0
     187 MOL  12   MOL  C    4      0.000000        1.0080           0
     188 MOL  12   MOL  C    4      0.000000        1.0080           0
     189 MOL  12   MOL  C    4      0.000000        1.0080           0
     190 MOL  12   MOL  C    4      0.000000        1.0080           0
     191 MOL  12   MOL  C    4      0.000000        1.0080           0
     192 MOL  12   MOL  C    4      0.000000        1.0080           0
     193 MOL  13   MOL  C    1      0.000000       12.0112           0
     194 MOL  13   MOL  C    1      0.000000       12.0112           0
     195 MOL  13   MOL  C    1      0.000000       12.0112           0
     196 MOL  13   MOL  C    1      0.000000       12.0112           0
     197 MOL  13   MOL  C    1      0.000000       12.0112           0
     198 MOL  13   MOL  C    1      0.000000       12.0112           0
     199 MOL  13   MOL  C    2      0.000000       12.0112           0
     200 MOL  13   MOL  C    3      0.000000       12.0112           0
     201 MOL  13   MOL  C    4      0.000000        1.0080           0
     202 MOL  13   MOL  C    4      0.000000        1.0080           0
     203 MOL  13   MOL  C    4      0.000000        1.0080           0
     204 MOL  13   MOL  C    4      0.000000        1.0080           0
     205 MOL  13   MOL  C    4      0.000000        1.0080           0
     206 MOL  13   MOL  C    4      0.000000        1.0080           0
     207 MOL  13   MOL  C    4      0.000000        1.0080           0
     208 MOL  13   MOL  C    4      0.000000        1.0080           0
     209 MOL  14   MOL  C    1      0.000000       12.0112           0
     210 MOL  14   MOL  C    1      0.000000       12.0112           0
     211 MOL  14   MOL  C    1      0.000000       12.0112           0
     212 MOL  14   MOL  C    1      0.000000       12.0112           0
     213 MOL  14   MOL  C    1      0.000000       12.0112           0
     214 MOL  14   MOL  C    1      0.000000       12.0112           0
     215 MOL  14   MOL  C    2      0.000000       12.0112           0
     216 MOL  14   MOL  C    3      0.000000       12.0112           0
     217 MOL  14   MOL  C    4      0.000000        1.0080           0
     218 MOL  14   MOL  C    4      0.000000        1.0080           0
     219 MOL  14   MOL  C    4      0.000000        1.0080           0
     220 MOL  14   MOL  C    4      0.000000        1.0080           0
     221 MOL  14   MOL  C    4      0.000000        1.0080           0
     222 MOL  14   MOL  C    4      0.000000        1.0080           0
     223 MOL  14   MOL  C    4      0.000000        1.0080           0
     224 MOL  14   MOL  C    4      0.000000        1.0080           0
     225 MOL  15   MOL  C    1      0.000000       12.0112           0
     226 MOL  15   MOL  C    1      0.000000       12.0112           0
     227 MOL  15   MOL  C    1      0.000000       12.0112           0
     228 MOL  15   MOL  C    1      0.000000       12.0112           0
     229 MOL  15   MOL  C    1      0.000000       12.0112           0
     230 MOL  15   MOL  C    1      0.000000       12.0112           0
     231 MOL  15   MOL  C    2      0.000000       12.0112           0
     232 MOL  15   MOL  C    3      0.000000       12.0112           0
     233 MOL  15   MOL  C    4      0.000000        1.0080           0
     234 MOL  15   MOL  C    4      0.000000        1.0080           0
     235 MOL  15   MOL  C    4      0.000000        1.0080           0
     236 MOL  15   MOL  C    4      0.000000        1.0080           0
     237 MOL  15   MOL  C    4      0.000000        1.0080           0
     238 MOL  15   MOL  C    4      0.000000        1.0080           0
     239 MOL  15   MOL  C    4      0.000000        1.0080           0
     240 MOL  15   MOL  C    4      0.000000        1.0080           0
     241 MOL  16   MOL  C    1      0.000000       12.0112           0
     242 MOL  16   MOL  C    1      0.000000       12.0112           0
     243 MOL  16   MOL  C    1      0.000000       12.0112           0
     244 MOL  16   MOL  C    1      0.000000       12.0112           0
     245 MOL  16   MOL  C    1      0.000000       12.0112           0
     246 MOL  16   MOL  C    1      0.000000       12.0112           0
     247 MOL  16   MOL  C    2      0.000000       12.0112           0
     248 MOL  16   MOL  C    3      0.000000       12.0112           0
     249 MOL  16   MOL  C    4      0.000000        1.0080           0
     250 MOL  16   MOL  C    4      0.000000        1.0080           0
     251 MOL  16   MOL  C    4      0.000000        1.0080           0
     252 MOL  16   MOL  C    4      0.000000        1.0080           0
     253 MOL  16   MOL  C    4      0.000000        1.0080           0
     254 MOL  16   MOL  C    4      0.000000        1.0080           0
     255 MOL  16   MOL  C    4      0.000000        1.0080           0
     256 MOL  16   MOL  C    4      0.000000        1.0080           0
     257 MOL  17   MOL  C    1      0.000000       12.0112           0
     258 MOL  17   MOL  C    1      0.000000       12.0112           0
     259 MOL  17   MOL  C    1      0.000000       12.0112           0
     260 MOL  17   MOL  C    1      0.000000       12.0112           0
     261 MOL  17   MOL  C    1      0.000000       12.0112           0
     262 MOL  17   MOL  C    1      0.000000       12.0112           0
     263 MOL  17   MOL  C    2      0.000000       12.0112           0
     264 MOL  17   MOL  C    3      0.000000       12.0112           0
     265 MOL  17   MOL  C    4      0.000000        1.0080           0
     266 MOL  17   MOL  C    4      0.000000        1.0080           0
     267 MOL  17   MOL  C    4      0.000000        1.0080           0
     268 MOL  17   MOL  C    4      0.000000        1.0080           0
     269 MOL  17   MOL  C    4      0.000000        1.0080           0
     270 MOL  17   MOL  C    4      0.000000        1.0080           0
     271 MOL  17   MOL  C    4      0.000000        1.0080           0
     272 MOL  17   MOL  C    4      0.000000        1.0080           0
     273 MOL  18   MOL  C    1      0.000000       12.0112           0
     274 MOL  18   MOL  C    1      0.000000       12.0112           0
     275 MOL  18   MOL  C    1      0.000000       12.0112           0
     276 MOL  18   MOL  C    1      0.000000       12.0112           0
     277 MOL  18   MOL  C    1      0.000000       12.0112           0
     278 MOL  18   MOL  C    1      0.000000       12.0112           0
     279 MOL  18   MOL  C    2      0.000000       12.0112           0
     280 MOL  18   MOL  C    3      0.000000       12.0112           0
     281 MOL  18   MOL  C    4      0.000000        1.0080           0
     282 MOL  18   MOL  C    4      0.000000        1.0080           0
     283 MOL  18   MOL  C    4      0.000000        1.0080           0
     284 MOL  18   MOL  C    4      0.000000        1.0080           0
     285 MOL  18   MOL  C    4      0.000000        1.0080           0
     286 MOL  18   MOL  C    4      0.000000        1.0080           0
     287 MOL  18   MOL  C    4      0.000000        1.0080           0
     288 MOL  18   MOL  C    4      0.000000        1.0080           0
     289 MOL  19   MOL  C    1      0.000000       12.0112           0
     290 MOL  19   MOL  C    1      0.000000       12.0112           0
     291 MOL  19   MOL  C    1      0.000000       12.0112           0
     292 MOL  19   MOL  C    1      0.000000       12.0112           0
     293 MOL  19   MOL  C    1      0.000000       12.0112           0
     294 MOL  19   MOL  C    1      0.000000       12.0112           0
     295 MOL  19   MOL  C    2      0.000000       12.0112           0
     296 MOL  19   MOL  C    3      0.000000       12.0112           0
     297 MOL  19   MOL  C    4      0.000000        1.0080           0
     298 MOL  19   MOL  C    4      0.000000        1.0080           0
     299 MOL  19   MOL  C    4      0.000000        1.0080           0
     300 MOL  19   MOL  C    4      0.000000        1.0080           0
     301 MOL  19   MOL  C    4      0.000000        1.0080           0
     302 MOL  19   MOL  C    4      0.000000        1.0080           0
     303 MOL  19   MOL  C    4      0.000000        1.0080           0
     304 MOL  19   MOL  C    4      0.000000        1.0080           0
     305 MOL  20   MOL  C    1      0.000000       12.0112           0
     306 MOL  20   MOL  C    1      0.000000       12.0112           0
     307 MOL  20   MOL  C    1      0.000000       12.0112           0
     308 MOL  20   MOL  C    1      0.000000       12.0112           0
     309 MOL  20   MOL  C    1      0.000000       12.0112           0
     310 MOL  20   MOL  C    1      0.000000       12.0112           0
     311 MOL  20   MOL  C    2      0.000000       12.0112           0
     312 MOL  20   MOL  C    3      0.000000       12.0112           0
     313 MOL  20   MOL  C    4      0.000000        1.0080           0
     314 MOL  20   MOL  C    4      0.000000        1.0080           0
     315 MOL  20   MOL  C    4      0.000000        1.0080           0
     316 MOL  20   MOL  C    4      0.000000        1.0080           0
     317 MOL  20   MOL  C    4      0.000000        1.0080           0
     318 MOL  20   MOL  C    4      0.000000        1.0080           0
     319 MOL  20   MOL  C    4      0.000000        1.0080           0
     320 MOL  20   MOL  C    4      0.000000        1.0080           0
     321 MOL  21   MOL  C    1      0.000000       12.0112           0
     322 MOL  21   MOL  C    1      0.000000       12.0112           0
     323 MOL  21   MOL  C    1      0.000000       12.0112           0
     324 MOL  21   MOL  C    1      0.000000       12.0112           0
     325 MOL  21   MOL  C    1      0.000000       12.0112           0
     326 MOL  21   MOL  C    1      0.000000       12.0112           0
     327 MOL  21   MOL  C    2      0.000000       12.0112           0
     328 MOL  21   MOL  C    3      0.000000       12.0112           0
     329 MOL  21   MOL  C    4      0.000000        1.0080           0
     330 MOL  21   MOL  C    4      0.000000        1.0080           0
     331 MOL  21   MOL  C    4      0.000000        1.0080           0
     332 MOL  21   MOL  C    4      0.000000        1.0080           0
     333 MOL  21   MOL  C    4      0.000000        1.0080           0
     334 MOL  21   MOL  C    4      0.000000        1.0080           0
     335 MOL  21   MOL  C    4      0.000000        1.0080           0
     336 MOL  21   MOL  C    4      0.000000        1.0080           0
     337 MOL  22   MOL  C    1      0.000000       12.0112           0
     338 MOL  22   MOL  C    1      0.000000       12.0112           0
     339 MOL  22   MOL  C    1      0.000000       12.0112           0
     340 MOL  22   MOL  C    1      0.000000       12.0112           0
     341 MOL  22   MOL  C    1      0.000000       12.0112           0
     342 MOL  22   MOL  C    1      0.000000       12.0112           0
     343 MOL  22   MOL  C    2      0.000000       12.0112           0
     344 MOL  22   MOL  C    3      0.000000       12.0112           0
     345 MOL  22   MOL  C    4      0.000000        1.0080           0
     346 MOL  22   MOL  C    4      0.000000        1.0080           0
     347 MOL  22   MOL  C    4      0.000000        1.0080           0
     348 MOL  22   MOL  C    4      0.000000        1.0080           0
     349 MOL  22   MOL  C    4      0.000000        1.0080           0
     350 MOL  22   MOL  C    4      0.000000        1.0080           0
     351 MOL  22   MOL  C    4      0.000000        1.0080           0
     352 MOL  22   MOL  C    4      0.000000        1.0080           0
     353 MOL  23   MOL  C    1      0.000000       12.0112           0
     354 MOL  23   MOL  C    1      0.000000       12.0112           0
     355 MOL  23   MOL  C    1      0.000000       12.0112           0
     356 MOL  23   MOL  C    1      0.000000       12.0112           0
     357 MOL  23   MOL  C    1      0.000000       12.0112           0
     358 MOL  23   MOL  C    1      0.000000       12.0112           0
     359 MOL  23   MOL  C    2      0.000000       12.0112           0
     360 MOL  23   MOL  C    3      0.000000       12.0112           0
     361 MOL  23   MOL  C    4      0.000000        1.0080           0
     362 MOL  23   MOL  C    4      0.000000        1.0080           0
     363 MOL  23   MOL  C    4      0.000000        1.0080           0
     364 MOL  23   MOL  C    4      0.000000        1.0080           0
     365 MOL  23   MOL  C    4      0.000000        1.0080           0
     366 MOL  23   MOL  C    4      0.000000        1.0080           0
     367 MOL  23   MOL  C    4      0.000000        1.0080           0
     368 MOL  23   MOL  C    4      0.000000        1.0080           0
     369 MOL  24   MOL  C    1      0.000000       12.0112           0
     370 MOL  24   MOL  C    1      0.000000       12.0112           0
     371 MOL  24   MOL  C    1      0.000000       12.0112           0
     372 MOL  24   MOL  C    1      0.000000       12.0112           0
     373 MOL  24   MOL  C    1      0.000000       12.0112           0
     374 MOL  24   MOL  C    1      0.000000       12.0112           0
     375 MOL  24   MOL  C    2      0.000000       12.0112           0
     376 MOL  24   MOL  C    3      0.000000       12.0112           0
     377 MOL  24   MOL  C    4      0.000000        1.0080           0
     378 MOL  24   MOL  C    4      0.000000        1.0080           0
     379 MOL  24   MOL  C    4      0.000000        1.0080           0
     380 MOL  24   MOL  C    4      0.000000        1.0080           0
     381 MOL  24   MOL  C    4      0.000000        1.0080           0
     382 MOL  24   MOL  C    4      0.000000        1.0080           0
     383 MOL  24   MOL  C    4      0.000000        1.0080           0
     384 MOL  24   MOL  C    4      0.000000        1.0080           0
     385 MOL  25   MOL  C    1      0.000000       12.0112           0
     386 MOL  25   MOL  C    1      0.000000       12.0112           0
     387 MOL  25   MOL  C    1      0.000000       12.0112           0
     388 MOL  25   MOL  C    1      0.000000       12.0112           0
     389 MOL  25   MOL  C    1      0.000000       12.0112           0
     390 MOL  25   MOL  C    1      0.000000       12.0112           0
     391 MOL  25   MOL  C    2      0.000000       12.0112           0
     392 MOL  25   MOL  C    3      0.000000       12.0112           0
     393 MOL  25   MOL  C    4      0.000000        1.0080           0
     394 MOL  25   MOL  C    4      0.000000        1.0080           0
     395 MOL  25   MOL  C    4      0.000000        1.0080           0
     396 MOL  25   MOL  C    4      0.000000        1.0080           0
     397 MOL  25   MOL  C    4      0.000000        1.0080           0
     398 MOL  25   MOL  C    4      0.000000        1.0080           0
     399 MOL  25   MOL  C    4      0.000000        1.0080           0
     400 MOL  25   MOL  C    4      0.000000        1.0080           0
     401 MOL  26   MOL  C    1      0.000000       12.0112           0
     402 MOL  26   MOL  C    1      0.000000       12.0112           0
     403 MOL  26   MOL  C    1      0.000000       12.0112           0
     404 MOL  26   MOL  C    1      0.000000       12.0112           0
     405 MOL  26   MOL  C    1      0.000000       12.0112           0
     406 MOL  26   MOL  C    1      0.000000       12.0112           0
     407 MOL  26   MOL  C    2      0.000000       12.0112           0
     408 MOL  26   MOL  C    3      0.000000       12.0112           0
     409 MOL  26   MOL  C    4      0.000000        1.0080           0
     410 MOL  26   MOL  C    4      0.000000        1.0080           0
     411 MOL  26   MOL  C    4      0.000000        1.0080           0
     412 MOL  26   MOL  C    4      0.000000        1.0080           0
     413 MOL  26   MOL  C    4      0.000000        1.0080           0
     414 MOL  26   MOL  C    4      0.000000        1.0080           0
     415 MOL  26   MOL  C    4      0.000000        1.0080           0
     416 MOL  26   MOL  C    4      0.000000        1.0080           0
     417 MOL  27   MOL  C    1      0.000000       12.0112           0
     418 MOL  27   MOL  C    1      0.000000       12.0112           0
     419 MOL  27   MOL  C    1      0.000000       12.0112           0
     420 MOL  27   MOL  C    1      0.000000       12.0112           0
     421 MOL  27   MOL  C    1      0.000000       12.0112           0
     422 MOL  27   MOL  C    1      0.000000       12.0112           0
     423 MOL  27   MOL  C    2      0.000000       12.0112           0
     424 MOL  27   MOL  C    3      0.000000       12.0112           0
     425 MOL  27   MOL  C    4      0.000000        1.0080           0
     426 MOL  27   MOL  C    4      0.000000        1.0080           0
     427 MOL  27   MOL  C    4      0.000000        1.0080           0
     428 MOL  27   MOL  C    4      0.000000        1.0080           0
     429 MOL  27   MOL  C    4      0.000000        1.0080           0
     430 MOL  27   MOL  C    4      0.000000        1.0080           0
     431 MOL  27   MOL  C    4      0.000000        1.0080           0
     432 MOL  27   MOL  C    4      0.000000        1.0080           0
     433 MOL  28   MOL  C    1      0.000000       12.0112           0
     434 MOL  28   MOL  C    1      0.000000       12.0112           0
     435 MOL  28   MOL  C    1      0.000000       12.0112           0
     436 MOL  28   MOL  C    1      0.000000       12.0112           0
     437 MOL  28   MOL  C    1      0.000000       12.0112           0
     438 MOL  28   MOL  C    1      0.000000       12.0112           0
     439 MOL  28   MOL  C    2      0.000000       12.0112           0
     440 MOL  28   MOL  C    3      0.000000       12.0112           0
     441 MOL  28   MOL  C    4      0.000000        1.0080           0
     442 MOL  28   MOL  C    4      0.000000        1.0080           0
     443 MOL  28   MOL  C    4      0.000000        1.0080           0
     444 MOL  28   MOL  C    4      0.000000        1.0080           0
     445 MOL  28   MOL  C    4      0.000000        1.0080           0
     446 MOL  28   MOL  C    4      0.000000        1.0080           0
     447 MOL  28   MOL  C    4      0.000000        1.0080           0
     448 MOL  28   MOL  C    4      0.000000        1.0080           0
     449 MOL  29   MOL  C    1      0.000000       12.0112           0
     450 MOL  29   MOL  C    1      0.000000       12.0112           0
     451 MOL  29   MOL  C    1      0.000000       12.0112           0
     452 MOL  29   MOL  C    1      0.000000       12.0112           0
     453 MOL  29   MOL  C    1      0.000000       12.0112           0
     454 MOL  29   MOL  C    1      0.000000       12.0112           0
     455 MOL  29   MOL  C    2      0.000000       12.0112           0
     456 MOL  29   MOL  C    3      0.000000       12.0112           0
     457 MOL  29   MOL  C    4      0.000000        1.0080           0
     458 MOL  29   MOL  C    4      0.000000        1.0080           0
     459 MOL  29   MOL  C    4      0.000000        1.0080           0
     460 MOL  29   MOL  C    4      0.000000        1.0080           0
     461 MOL  29   MOL  C    4      0.000000        1.0080           0
     462 MOL  29   MOL  C    4      0.000000        1.0080           0
     463 MOL  29   MOL  C    4      0.000000        1.0080           0
     464 MOL  29   MOL  C    4      0.000000        1.0080           0
     465 MOL  30   MOL  C    1      0.000000       12.0112           0
     466 MOL  30   MOL  C    1      0.000000       12.0112           0
     467 MOL  30   MOL  C    1      0.000000       12.0112           0
     468 MOL  30   MOL  C    1      0.000000       12.0112           0
     469 MOL  30   MOL  C    1      0.000000       12.0112           0
     470 MOL  30   MOL  C    1      0.000000       12.0112           0
     471 MOL  30   MOL  C    2      0.000000       12.0112           0
     472 MOL  30   MOL  C    3      0.000000       12.0112           0
     473 MOL  30   MOL  C    4      0.000000        1.0080           0
     474 MOL  30   MOL  C    4      0.000000        1.0080           0
     475 MOL  30   MOL  C    4      0.000000        1.0080           0
     476 MOL  30   MOL  C    4      0.000000        1.0080           0
     477 MOL  30   MOL  C    4      0.000000        1.0080           0
     478 MOL  30   MOL  C    4      0.000000        1.0080           0
     479 MOL  30   MOL  C    4      0.000000        1.0080           0
     480 MOL  30   MOL  C    4      0.000000        1.0080           0
     481 MOL  31   MOL  C    1      0.000000       12.0112           0
     482 MOL  31   MOL  C    1      0.000000       12.0112           0
     483 MOL  31   MOL  C    1      0.000000       12.0112           0
     484 MOL  31   MOL  C    1      0.000000       12.0112           0
     485 MOL  31   MOL  C    1      0.000000       12.0112           0
     486 MOL  31   MOL  C    1      0.000000       12.0112           0
     487 MOL  31   MOL  C    2      0.000000       12.0112           0
     488 MOL  31   MOL  C    3      0.000000       12.0112           0
     489 MOL  31   MOL  C    4      0.000000        1.0080           0
     490 MOL  31   MOL  C    4      0.000000        1.0080           0
     491 MOL  31   MOL  C    4      0.000000        1.0080           0
     492 MOL  31   MOL  C    4      0.000000        1.0080           0
     493 MOL  31   MOL  C    4      0.000000        1.0080           0
     494 MOL  31   MOL  C    4      0.000000        1.0080           0
     495 MOL  31   MOL  C    4      0.000000        1.0080           0
     496 MOL  31   MOL  C    4      0.000000        1.0080           0
     497 MOL  32   MOL  C    1      0.000000       12.0112           0
     498 MOL  32   MOL  C    1      0.000000       12.0112           0
     499 MOL  32   MOL  C    1      0.000000       12.0112           0
     500 MOL  32   MOL  C    1      0.000000       12.0112           0
     501 MOL  32   MOL  C    1      0.000000       12.0112           0
     502 MOL  32   MOL  C    1      0.000000       12.0112           0
     503 MOL  32   MOL  C    2      0.000000       12.0112           0
     504 MOL  32   MOL  C    3      0.000000       12.0112           0
     505 MOL  32   MOL  C    4      0.000000        1.0080           0
     506 MOL  32   MOL  C    4      0.000000        1.0080           0
     507 MOL  32   MOL  C    4      0.000000        1.0080           0
     508 MOL  32   MOL  C    4      0.000000        1.0080           0
     509 MOL  32   MOL  C    4      0.000000        1.0080           0
     510 MOL  32   MOL  C    4      0.000000        1.0080           0
     511 MOL  32   MOL  C    4      0.000000        1.0080           0
     512 MOL  32   MOL  C    4      0.000000        1.0080           0
     513 MOL  33   MOL  C    1      0.000000       12.0112           0
     514 MOL  33   MOL  C    1      0.000000       12.0112           0
     515 MOL  33   MOL  C    1      0.000000       12.0112           0
     516 MOL  33   MOL  C    1      0.000000       12.0112           0
     517 MOL  33   MOL  C    1      0.000000       12.0112           0
     518 MOL  33   MOL  C    1      0.000000       12.0112           0
     519 MOL  33   MOL  C    2      0.000000       12.0112           0
     520 MOL  33   MOL  C    3      0.000000       12.0112           0
     521 MOL  33   MOL  C    4      0.000000        1.0080           0
     522 MOL  33   MOL  C    4      0.000000        1.0080           0
     523 MOL  33   MOL  C    4      0.000000        1.0080           0
     524 MOL  33   MOL  C    4      0.000000        1.0080           0
     525 MOL  33   MOL  C    4      0.000000        1.0080           0
     526 MOL  33   MOL  C    4      0.000000        1.0080           0
     527 MOL  33   MOL  C    4      0.000000        1.0080           0
     528 MOL  33   MOL  C    4      0.000000        1.0080           0
     529 MOL  34   MOL  C    1      0.000000       12.0112           0
     530 MOL  34   MOL  C    1      0.000000       12.0112           0
     531 MOL  34   MOL  C    1      0.000000       12.0112           0
     532 MOL  34   MOL  C    1      0.000000       12.0112           0
     533 MOL  34   MOL  C    1      0.000000       12.0112           0
     534 MOL  34   MOL  C    1      0.000000       12.0112           0
     535 MOL  34   MOL  C    2      0.000000       12.0112           0
     536 MOL  34   MOL  C    3      0.000000       12.0112           0
     537 MOL  34   MOL  C    4      0.000000        1.0080           0
     538 MOL  34   MOL  C    4      0.000000        1.0080           0
     539 MOL  34   MOL  C    4      0.000000        1.0080           0
     540 MOL  34   MOL  C    4      0.000000        1.0080           0
     541 MOL  34   MOL  C    4      0.000000        1.0080           0
     542 MOL  34   MOL  C    4      0.000000        1.0080           0
     543 MOL  34   MOL  C    4      0.000000        1.0080           0
     544 MOL  34   MOL  C    4      0.000000        1.0080           0
     545 MOL  35   MOL  C    1      0.000000       12.0112           0
     546 MOL  35   MOL  C    1      0.000000       12.0112           0
     547 MOL  35   MOL  C    1      0.000000       12.0112           0
     548 MOL  35   MOL  C    1      0.000000       12.0112           0
     549 MOL  35   MOL  C    1      0.000000       12.0112           0
     550 MOL  35   MOL  C    1      0.000000       12.0112           0
     551 MOL  35   MOL  C    2      0.000000       12.0112           0
     552 MOL  35   MOL  C    3      0.000000       12.0112           0
     553 MOL  35   MOL  C    4      0.000000        1.0080           0
     554 MOL  35   MOL  C    4      0.000000        1.0080           0
     555 MOL  35   MOL  C    4      0.000000        1.0080           0
     556 MOL  35   MOL  C    4      0.000000        1.0080           0
     557 MOL  35   MOL  C    4      0.000000        1.0080           0
     558 MOL  35   MOL  C    4      0.000000        1.0080           0
     559 MOL  35   MOL  C    4      0.000000        1.0080           0
     560 MOL  35   MOL  C    4      0.000000        1.0080           0
     561 MOL  36   MOL  C    1      0.000000       12.0112           0
     562 MOL  36   MOL  C    1      0.000000       12.0112           0
     563 MOL  36   MOL  C    1      0.000000       12.0112           0
     564 MOL  36   MOL  C    1      0.000000       12.0112           0
     565 MOL  36   MOL  C    1      0.000000       12.0112           0
     566 MOL  36   MOL  C    1      0.000000       12.0112           0
     567 MOL  36   MOL  C    2      0.000000       12.0112           0
     568 MOL  36   MOL  C    3      0.000000       12.0112           0
     569 MOL  36   MOL  C    4      0.000000        1.0080           0
     570 MOL  36   MOL  C    4      0.000000        1.0080           0
     571 MOL  36   MOL  C    4      0.000000        1.0080           0
     572 MOL  36   MOL  C    4      0.000000        1.0080           0
     573 MOL  36   MOL  C    4      0.000000        1.0080           0
     574 MOL  36   MOL  C    4      0.000000        1.0080           0
     575 MOL  36   MOL  C    4      0.000000        1.0080           0
     576 MOL  36   MOL  C    4      0.000000        1.0080           0
     577 MOL  37   MOL  C    1      0.000000       12.0112           0
     578 MOL  37   MOL  C    1      0.000000       12.0112           0
     579 MOL  37   MOL  C    1      0.000000       12.0112           0
     580 MOL  37   MOL  C    1      0.000000       12.0112           0
     581 MOL  37   MOL  C    1      0.000000       12.0112           0
     582 MOL  37   MOL  C    1      0.000000       12.0112           0
     583 MOL  37   MOL  C    2      0.000000       12.0112           0
     584 MOL  37   MOL  C    3      0.000000       12.0112           0
     585 MOL  37   MOL  C    4      0.000000        1.0080           0
     586 MOL  37   MOL  C    4      0.000000        1.0080           0
     587 MOL  37   MOL  C    4      0.000000        1.0080           0
     588 MOL  37   MOL  C    4      0.000000        1.0080           0
     589 MOL  37   MOL  C    4      0.000000        1.0080           0
     590 MOL  37   MOL  C    4      0.000000        1.0080           0
     591 MOL  37   MOL  C    4      0.000000        1.0080           0
     592 MOL  37   MOL  C    4      0.000000        1.0080           0
     593 MOL  38   MOL  C    1      0.000000       12.0112           0
     594 MOL  38   MOL  C    1      0.000000       12.0112           0
     595 MOL  38   MOL  C    1      0.000000       12.0112           0
     596 MOL  38   MOL  C    1      0.000000       12.0112           0
     597 MOL  38   MOL  C    1      0.000000       12.0112           0
     598 MOL  38   MOL  C    1      0.000000       12.0112           0
     599 MOL  38   MOL  C    2      0.000000       12.0112           0
     600 MOL  38   MOL  C    3      0.000000       12.0112           0
     601 MOL  38   MOL  C    4      0.000000        1.0080           0
     602 MOL  38   MOL  C    4      0.000000        1.0080           0
     603 MOL  38   MOL  C    4      0.000000        1.0080           0
     604 MOL  38   MOL  C    4      0.000000        1.0080           0
     605 MOL  38   MOL  C    4      0.000000        1.0080           0
     606 MOL  38   MOL  C    4      0.000000        1.0080           0
     607 MOL  38   MOL  C    4      0.000000        1.0080           0
     608 MOL  38   MOL  C    4      0.000000        1.0080           0
     609 MOL  39   MOL  C    1      0.000000       12.0112           0
     610 MOL  39   MOL  C    1      0.000000       12.0112           0
     611 MOL  39   MOL  C    1      0.000000       12.0112           0
     612 MOL  39   MOL  C    1      0.000000       12.0112           0
     613 MOL  39   MOL  C    1      0.000000       12.0112           0
     614 MOL  39   MOL  C    1      0.000000       12.0112           0
     615 MOL  39   MOL  C    2      0.000000       12.0112           0
     616 MOL  39   MOL  C    3      0.000000       12.0112           0
     617 MOL  39   MOL  C    4      0.000000        1.0080           0
     618 MOL  39   MOL  C    4      0.000000        1.0080           0
     619 MOL  39   MOL  C    4      0.000000        1.0080           0
     620 MOL  39   MOL  C    4      0.000000        1.0080           0
     621 MOL  39   MOL  C    4      0.000000        1.0080           0
     622 MOL  39   MOL  C    4      0.000000        1.0080           0
     623 MOL  39   MOL  C    4      0.000000        1.0080           0
     624 MOL  39   MOL  C    4      0.000000        1.0080           0
     625 MOL  40   MOL  C    1      0.000000       12.0112           0
     626 MOL  40   MOL  C    1      0.000000       12.0112           0
     627 MOL  40   MOL  C    1      0.000000       12.0112           0
     628 MOL  40   MOL  C    1      0.000000       12.0112           0
     629 MOL  40   MOL  C    1      0.000000       12.0112           0
     630 MOL  40   MOL  C    1      0.000000       12.0112           0
     631 MOL  40   MOL  C    2      0.000000       12.0112           0
     632 MOL  40   MOL  C    3      0.000000       12.0112           0
     633 MOL  40   MOL  C    4      0.000000        1.0080           0
     634 MOL  40   MOL  C    4      0.000000        1.0080           0
     635 MOL  40   MOL  C    4      0.000000        1.0080           0
     636 MOL  40   MOL  C    4      0.000000        1.0080           0
     637 MOL  40   MOL  C    4      0.000000        1.0080           0
     638 MOL  40   MOL  C    4      0.000000        1.0080           0
     639 MOL  40   MOL  C    4      0.000000        1.0080           0
     640 MOL  40   MOL  C    4      0.000000        1.0080           0
     641 MOL  41   MOL  C    1      0.000000       12.0112           0
     642 MOL  41   MOL  C    1      0.000000       12.0112           0
     643 MOL  41   MOL  C    1      0.000000       12.0112           0
     644 MOL  41   MOL  C    1      0.000000       12.0112           0
     645 MOL  41   MOL  C    1      0.000000       12.0112           0
     646 MOL  41   MOL  C    1      0.000000       12.0112           0
     647 MOL  41   MOL  C    2      0.000000       12.0112           0
     648 MOL  41   MOL  C    3      0.000000       12.0112           0
     649 MOL  41   MOL  C    4      0.000000        1.0080           0
     650 MOL  41   MOL  C    4      0.000000        1.0080           0
     651 MOL  41   MOL  C    4      0.000000        1.0080           0
     652 MOL  41   MOL  C    4      0.000000        1.0080           0
     653 MOL  41   MOL  C    4      0.000000        1.0080           0
     654 MOL  41   MOL  C    4      0.000000        1.0080           0
     655 MOL  41   MOL  C    4      0.000000        1.0080           0
     656 MOL  41   MOL  C    4      0.000000        1.0080           0
     657 MOL  42   MOL  C    1      0.000000       12.0112           0
     658 MOL  42   MOL  C    1      0.000000       12.0112           0
     659 MOL  42   MOL  C    1      0.000000       12.0112           0
     660 MOL  42   MOL  C    1      0.000000       12.0112           0
     661 MOL  42   MOL  C    1      0.000000       12.0112           0
     662 MOL  42   MOL  C    1      0.000000       12.0112           0
     663 MOL  42   MOL  C    2      0.000000       12.0112           0
     664 MOL  42   MOL  C    3      0.000000       12.0112           0
     665 MOL  42   MOL  C    4      0.000000        1.0080           0
     666 MOL  42   MOL  C    4      0.000000        1.0080           0
     667 MOL  42   MOL  C    4      0.000000        1.0080           0
     668 MOL  42   MOL  C    4      0.000000        1.0080           0
     669 MOL  42   MOL  C    4      0.000000        1.0080           0
     670 MOL  42   MOL  C    4      0.000000        1.0080           0
     671 MOL  42   MOL  C    4      0.000000        1.0080           0
     672 MOL  42   MOL  C    4      0.000000        1.0080           0
     673 MOL  43   MOL  C    1      0.000000       12.0112           0
     674 MOL  43   MOL  C    1      0.000000       12.0112           0
     675 MOL  43   MOL  C    1      0.000000       12.0112           0
     676 MOL  43   MOL  C    1      0.000000       12.0112           0
     677 MOL  43   MOL  C    1      0.000000       12.0112           0
     678 MOL  43   MOL  C    1      0.000000       12.0112           0
     679 MOL  43   MOL  C    2      0.000000       12.0112           0
     680 MOL  43   MOL  C    3      0.000000       12.0112           0
     681 MOL  43   MOL  C    4      0.000000        1.0080           0
     682 MOL  43   MOL  C    4      0.000000        1.0080           0
     683 MOL  43   MOL  C    4      0.000000        1.0080           0
     684 MOL  43   MOL  C    4      0.000000        1.0080           0
     685 MOL  43   MOL  C    4      0.000000        1.0080           0
     686 MOL  43   MOL  C    4      0.000000        1.0080           0
     687 MOL  43   MOL  C    4      0.000000        1.0080           0
     688 MOL  43   MOL  C    4      0.000000        1.0080           0
     689 MOL  44   MOL  C    1      0.000000       12.0112           0
     690 MOL  44   MOL  C    1      0.000000       12.0112           0
     691 MOL  44   MOL  C    1      0.000000       12.0112           0
     692 MOL  44   MOL  C    1      0.000000       12.0112           0
     693 MOL  44   MOL  C    1      0.000000       12.0112           0
     694 MOL  44   MOL  C    1      0.000000       12.0112           0
     695 MOL  44   MOL  C    2      0.000000       12.0112           0
     696 MOL  44   MOL  C    3      0.000000       12.0112           0
     697 MOL  44   MOL  C    4      0.000000        1.0080           0
     698 MOL  44   MOL  C    4      0.000000        1.0080           0
     699 MOL  44   MOL  C    4      0.000000        1.0080           0
     700 MOL  44   MOL  C    4      0.000000        1.0080           0
     701 MOL  44   MOL  C    4      0.000000        1.0080           0
     702 MOL  44   MOL  C    4      0.000000        1.0080           0
     703 MOL  44   MOL  C    4      0.000000        1.0080           0
     704 MOL  44   MOL  C    4      0.000000        1.0080           0
     705 MOL  45   MOL  C    1      0.000000       12.0112           0
     706 MOL  45   MOL  C    1      0.000000       12.0112           0
     707 MOL  45   MOL  C    1      0.000000       12.0112           0
     708 MOL  45   MOL  C    1      0.000000       12.0112           0
     709 MOL  45   MOL  C    1      0.000000       12.0112           0
     710 MOL  45   MOL  C    1      0.000000       12.0112           0
     711 MOL  45   MOL  C    2      0.000000       12.0112           0
     712 MOL  45   MOL  C    3      0.000000       12.0112           0
     713 MOL  45   MOL  C    4      0.000000        1.0080           0
     714 MOL  45   MOL  C    4      0.000000        1.0080           0
     715 MOL  45   MOL  C    4      0.000000        1.0080           0
     716 MOL  45   MOL  C    4      0.000000        1.0080           0
     717 MOL  45   MOL  C    4      0.000000        1.0080           0
     718 MOL  45   MOL  C    4      0.000000        1.0080           0
     719 MOL  45   MOL  C    4      0.000000        1.0080           0
     720 MOL  45   MOL  C    4      0.000000        1.0080           0

     720 !NBOND: bonds
       1       2       3       4       4       5       5       6
       2       3       1       6       7       3       7       8
       1       9       2      10       4      11       5      12
       6      13       7      14       8      15       8      16
      17      18      19      20      20      21      21      22
      18      19      17      22      23      19      23      24
      17      25      18      26      20      27      21      28
      22      29      23      30      24      31      24      32
      33      34      35      36      36      37      37      38
      34      35      33      38      39      35      39      40
      33      41      34      42      36      43      37      44
      38      45      39      46      40      47      40      48
      49      50      51      52      52      53      53      54
      50      51      49      54      55      51      55      56
      49      57      50      58      52      59      53      60
      54      61      55      62      56      63      56      64
      65      66      67      68      68      69      69      70
      66      67      65      70      71      67      71      72
      65      73      66      74      68      75      69      76
      70      77      71      78      72      79      72      80
      81      82      83      84      84      85      85      86
      82      83      81      86      87      83      87      88
      81      89      82      90      84      91      85      92
      86      93      87      94      88      95      88      96
      97      98      99     100     100     101     101     102
      98      99      97     102     103      99     103     104
      97     105      98     106     100     107     101     108
     102     109     103     110     104     111     104     112
     113     114     115     116     116     117     117     118
     114     115     113     118     119     115     119     120
     113     121     114     122     116     123     117     124
     118     125     119     126     120     127     120     128
     129     130     131     132     132     133     133     134
     130     131     129     134     135     131     135     136
     129     137     130     138     132     139     133     140
     134     141     135     142     136     143     136     144
     145     146     147     148     148     149     149     150
     146     147     145     150     151     147     151     152
     145     153     146     154     148     155     149     156
     150     157     151     158     152     159     152     160
     161     162     163     164     164     165     165     166
     162     163     161     166     167     163     167     168
     161     169     162     170     164     171     165     172
     166     173     167     174     168     175     168     176
     177     178     179     180     180     181     181     182
     178     179     177     182     183     179     183     184
     177     185     178     186     180     187     181     188
     182     189     183     190     184     191     184     192
     193     194     195     196     196     197     197     198
     194     195     193     198     199     195     199     200
     193     201     194     202     196     203     197     204
     198     205     199     206     200     207     200     208
     209     210     211     212     212     213     213     214
     210     211     209     214     215     211     215     216
     209     217     210     218     212     219     213     220
     214     221     215     222     216     223     216     224
     225     226     227     228     228     229     229     230
     226     227     225     230     231     227     231     232
     225     233     226     234     228     235     229     236
     230     237     231     238     232     239     232     240
     241     242     243     244     244     245     245     246
     242     243     241     246     247     243     247     248
     241     249     242     250     244     251     245     252
     246     253     247     254     248     255     248     256
     257     258     259     260     260     261     261     262
     258     259     257     262     263     259     263     264
     257     265     258     266     260     267     261     268
     262     269     263     270     264     271     264     272
     273     274     275     276     276     277     277     278
     274     275     273     278     279     275     279     280
     273     281     274     282     276     283     277     284
     278     285     279     286     280     287     280     288
     289     290     291     292     292     293     293     294
     290     291     289     294     295     291     295     296
     289     297     290     298     292     299     293     300
     294     301     295     302     296     303     296     304
     305     306     307     308     308     309     309     310
     306     307     305     310     311     307     311     312
     305     313     306     314     308     315     309     316
     310     317     311     318     312     319     312     320
     321     322     323     324     324     325     325     326
     322     323     321     326     327     323     327     328
     321     329     322     330     324     331     325     332
     326     333     327     334     328     335     328     336
     337     338     339     340     340     341     341     342
     338     339     337     342     343     339     343     344
     337     345     338     346     340     347     341     348
     342     349     343     350     344     351     344     352
     353     354     355     356     356     357     357     358
     354     355     353     358     359     355     359     360
     353     361     354     362     356     363     357     364
     358     365     359     366     360     367     360     368
     369     370     371     372     372     373     373     374
     370     371     369     374     375     371     375     376
     369     377     370     378     372     379     373     380
     374     381     375     382     376     383     376     384
     385     386     387     388     388     389     389     390
     386     387     385     390     391     387     391     392
     385     393     386     394     388     395     389     396
     390     397     391     398     392     399     392     400
     401     402     403     404     404     405     405     406
     402     403     401     406     407     403     407     408
     401     409     402     410     404     411     405     412
     406     413     407     414     408     415     408     416
     417     418     419     420     420     421     421     422
     418     419     417     422     423     419     423     424
     417     425     418     426     420     427     421     428
     422     429     423     430     424     431     424     432
     433     434     435     436     436     437     437     438
     434     435     433     438     439     435     439     440
     433     441     434     442     436     443     437     444
     438     445     439     446     440     447     440     448
     449     450     451     452     452     453     453     454
     450     451     449     454     455     451     455     456
     449     457     450     458     452     459     453     460
     454     461     455     462     456     463     456     464
     465     466     467     468     468     469     469     470
     466     467     465     470     471     467     471     472
     465     473     466     474     468     475     469     476
     470     477     471     478     472     479     472     480
     481     482     483     484     484     485     485     486
     482     483     481     486     487     483     487     488
     481     489     482     490     484     491     485     492
     486     493     487     494     488     495     488     496
     497     498     499     500     500     501     501     502
     498     499     497     502     503     499     503     504
     497     505     498     506     500     507     501     508
     502     509     503     510     504     511     504     512
     513     514     515     516     516     517     517     518
     514     515     513     518     519     515     519     520
     513     521     514     522     516     523     517     524
     518     525     519     526     520     527     520     528
     529     530     531     532     532     533     533     534
     530     531     529     534     535     531     535     536
     529     537     530     538     532     539     533     540
     534     541     535     542     536     543     536     544
     545     546     547     548     548     549     549     550
     546     547     545     550     551     547     551     552
     545     553     546     554     548     555     549     556
     550     557     551     558     552     559     552     560
     561     562     563     564     564     565     565     566
     562     563     561     566     567     563     567     568
     561     569     562     570     564     571     565     572
     566     573     567     574     568     575     568     576
     577     578     579     580     580     581     581     582
     578     579     577     582     583     579     583     584
     577     585     578     586     580     587     581     588
     582     589     583     590     584     591     584     592
     593     594     595     596     596     597     597     598
     594     595     593     598     599     595     599     600
     593     601     594     602     596     603     597     604
     598     605     599     606     600     607     600     608
     609     610     611     612     612     613     613     614
     610     611     609     614     615     611     615     616
     609     617     610     618     612     619     613     620
     614     621     615     622     616     623     616     624
     625     626     627     628     628     629     629     630
     626     627     625     630     631     627     631     632
     625     633     626     634     628     635     629     636
     630     637     631     638     632     639     632     640
     641     642     643     644     644     645     645     646
     642     643     641     646     647     643     647     648
     641     649     642     650     644     651     645     652
     646     653     647     654     648     655     648     656
     657     658     659     660     660     661     661     662
     658     659     657     662     663     659     663     664
     657     665     658     666     660     667     661     668
     662     669     663     670     664     671     664     672
     673     674     675     676     676     677     677     678
     674     675     673     678     679     675     679     680
     673     681     674     682     676     683     677     684
     678     685     679     686     680     687     680     688
     689     690     691     692     692     693     693     694
     690     691     689     694     695     691     695     696
     689     697     690     698     692     699     693     700
     694     701     695     702     696     703     696     704
     705     706     707     708     708     709     709     710
     706     707     705     710     711     707     711     712
     705     713     706     714     708     715     709     716
     710     717     711     718     712     719     712     720
