PSF

       3 !TITLE
 REMARKS LAMMPS data file via write_data, version 15 May 2015, timestep = 370
 REMARKS Generated with Polymatic
 REMARKS To be used with coordinates file in VMD

     800 !NATOM
       1 MOL  1    MOL  cp   1      0.000000       12.0112           0
       2 MOL  1    MOL  cp   1      0.000000       12.0112           0
       3 MOL  1    MOL  cp   1      0.000000       12.0112           0
       4 MOL  1    MOL  cp   1      0.000000       12.0112           0
       5 MOL  1    MOL  cp   1      0.000000       12.0112           0
       6 MOL  1    MOL  cp   1      0.000000       12.0112           0
       7 MOL  1    MOL  c1   5      0.000000       12.0112           0
       8 MOL  1    MOL  c2   3     -0.000000       12.0112           0
       9 MOL  1    MOL  hc   4      0.000000        1.0080           0
      10 MOL  1    MOL  hc   4      0.000000        1.0080           0
      11 MOL  1    MOL  hc   4      0.000000        1.0080           0
      12 MOL  1    MOL  hc   4      0.000000        1.0080           0
      13 MOL  1    MOL  hc   4      0.000000        1.0080           0
      14 MOL  1    MOL  hc   4      0.000000        1.0080           0
      15 MOL  1    MOL  hc   4      0.000000        1.0080           0
      16 MOL  1    MOL  hc   4      0.000000        1.0080           0
      17 MOL  1    MOL  cp   1      0.000000       12.0112           0
      18 MOL  1    MOL  cp   1      0.000000       12.0112           0
      19 MOL  1    MOL  cp   1      0.000000       12.0112           0
      20 MOL  1    MOL  cp   1      0.000000       12.0112           0
      21 MOL  1    MOL  cp   1      0.000000       12.0112           0
      22 MOL  1    MOL  cp   1      0.000000       12.0112           0
      23 MOL  1    MOL  c1   5      0.000000       12.0112           0
      24 MOL  1    MOL  c2   3     -0.000000       12.0112           0
      25 MOL  1    MOL  hc   4      0.000000        1.0080           0
      26 MOL  1    MOL  hc   4      0.000000        1.0080           0
      27 MOL  1    MOL  hc   4      0.000000        1.0080           0
      28 MOL  1    MOL  hc   4      0.000000        1.0080           0
      29 MOL  1    MOL  hc   4      0.000000        1.0080           0
      30 MOL  1    MOL  hc   4      0.000000        1.0080           0
      31 MOL  1    MOL  hc   4      0.000000        1.0080           0
      32 MOL  1    MOL  hc   4      0.000000        1.0080           0
      33 MOL  1    MOL  cp   1      0.000000       12.0112           0
      34 MOL  1    MOL  cp   1      0.000000       12.0112           0
      35 MOL  1    MOL  cp   1      0.000000       12.0112           0
      36 MOL  1    MOL  cp   1      0.000000       12.0112           0
      37 MOL  1    MOL  cp   1      0.000000       12.0112           0
      38 MOL  1    MOL  cp   1      0.000000       12.0112           0
      39 MOL  1    MOL  c1   5      0.000000       12.0112           0
      40 MOL  1    MOL  c2   3     -0.000000       12.0112           0
      41 MOL  1    MOL  hc   4      0.000000        1.0080           0
      42 MOL  1    MOL  hc   4      0.000000        1.0080           0
      43 MOL  1    MOL  hc   4      0.000000        1.0080           0
      44 MOL  1    MOL  hc   4      0.000000        1.0080           0
      45 MOL  1    MOL  hc   4      0.000000        1.0080           0
      46 MOL  1    MOL  hc   4      0.000000        1.0080           0
      47 MOL  1    MOL  hc   4      0.000000        1.0080           0
      48 MOL  1    MOL  hc   4      0.000000        1.0080           0
      49 MOL  1    MOL  cp   1      0.000000       12.0112           0
      50 MOL  1    MOL  cp   1      0.000000       12.0112           0
      51 MOL  1    MOL  cp   1      0.000000       12.0112           0
      52 MOL  1    MOL  cp   1      0.000000       12.0112           0
      53 MOL  1    MOL  cp   1      0.000000       12.0112           0
      54 MOL  1    MOL  cp   1      0.000000       12.0112           0
      55 MOL  1    MOL  c1   5      0.000000       12.0112           0
      56 MOL  1    MOL  c2   3     -0.000000       12.0112           0
      57 MOL  1    MOL  hc   4      0.000000        1.0080           0
      58 MOL  1    MOL  hc   4      0.000000        1.0080           0
      59 MOL  1    MOL  hc   4      0.000000        1.0080           0
      60 MOL  1    MOL  hc   4      0.000000        1.0080           0
      61 MOL  1    MOL  hc   4      0.000000        1.0080           0
      62 MOL  1    MOL  hc   4      0.000000        1.0080           0
      63 MOL  1    MOL  hc   4      0.000000        1.0080           0
      64 MOL  1    MOL  hc   4      0.000000        1.0080           0
      65 MOL  1    MOL  cp   1      0.000000       12.0112           0
      66 MOL  1    MOL  cp   1      0.000000       12.0112           0
      67 MOL  1    MOL  cp   1      0.000000       12.0112           0
      68 MOL  1    MOL  cp   1      0.000000       12.0112           0
      69 MOL  1    MOL  cp   1      0.000000       12.0112           0
      70 MOL  1    MOL  cp   1      0.000000       12.0112           0
      71 MOL  1    MOL  c1   5      0.000000       12.0112           0
      72 MOL  1    MOL  c2   3     -0.000000       12.0112           0
      73 MOL  1    MOL  hc   4      0.000000        1.0080           0
      74 MOL  1    MOL  hc   4      0.000000        1.0080           0
      75 MOL  1    MOL  hc   4      0.000000        1.0080           0
      76 MOL  1    MOL  hc   4      0.000000        1.0080           0
      77 MOL  1    MOL  hc   4      0.000000        1.0080           0
      78 MOL  1    MOL  hc   4      0.000000        1.0080           0
      79 MOL  1    MOL  hc   4      0.000000        1.0080           0
      80 MOL  1    MOL  hc   4      0.000000        1.0080           0
      81 MOL  1    MOL  cp   1      0.000000       12.0112           0
      82 MOL  1    MOL  cp   1      0.000000       12.0112           0
      83 MOL  1    MOL  cp   1      0.000000       12.0112           0
      84 MOL  1    MOL  cp   1      0.000000       12.0112           0
      85 MOL  1    MOL  cp   1      0.000000       12.0112           0
      86 MOL  1    MOL  cp   1      0.000000       12.0112           0
      87 MOL  1    MOL  c1   5      0.000000       12.0112           0
      88 MOL  1    MOL  c2   3     -0.000000       12.0112           0
      89 MOL  1    MOL  hc   4      0.000000        1.0080           0
      90 MOL  1    MOL  hc   4      0.000000        1.0080           0
      91 MOL  1    MOL  hc   4      0.000000        1.0080           0
      92 MOL  1    MOL  hc   4      0.000000        1.0080           0
      93 MOL  1    MOL  hc   4      0.000000        1.0080           0
      94 MOL  1    MOL  hc   4      0.000000        1.0080           0
      95 MOL  1    MOL  hc   4      0.000000        1.0080           0
      96 MOL  1    MOL  hc   4      0.000000        1.0080           0
      97 MOL  1    MOL  cp   1      0.000000       12.0112           0
      98 MOL  1    MOL  cp   1      0.000000       12.0112           0
      99 MOL  1    MOL  cp   1      0.000000       12.0112           0
     100 MOL  1    MOL  cp   1      0.000000       12.0112           0
     101 MOL  1    MOL  cp   1      0.000000       12.0112           0
     102 MOL  1    MOL  cp   1      0.000000       12.0112           0
     103 MOL  1    MOL  c1   5      0.000000       12.0112           0
     104 MOL  1    MOL  c2   3     -0.000000       12.0112           0
     105 MOL  1    MOL  hc   4      0.000000        1.0080           0
     106 MOL  1    MOL  hc   4      0.000000        1.0080           0
     107 MOL  1    MOL  hc   4      0.000000        1.0080           0
     108 MOL  1    MOL  hc   4      0.000000        1.0080           0
     109 MOL  1    MOL  hc   4      0.000000        1.0080           0
     110 MOL  1    MOL  hc   4      0.000000        1.0080           0
     111 MOL  1    MOL  hc   4      0.000000        1.0080           0
     112 MOL  1    MOL  hc   4      0.000000        1.0080           0
     113 MOL  1    MOL  cp   1      0.000000       12.0112           0
     114 MOL  1    MOL  cp   1      0.000000       12.0112           0
     115 MOL  1    MOL  cp   1      0.000000       12.0112           0
     116 MOL  1    MOL  cp   1      0.000000       12.0112           0
     117 MOL  1    MOL  cp   1      0.000000       12.0112           0
     118 MOL  1    MOL  cp   1      0.000000       12.0112           0
     119 MOL  1    MOL  c1   5      0.000000       12.0112           0
     120 MOL  1    MOL  c2   3     -0.000000       12.0112           0
     121 MOL  1    MOL  hc   4      0.000000        1.0080           0
     122 MOL  1    MOL  hc   4      0.000000        1.0080           0
     123 MOL  1    MOL  hc   4      0.000000        1.0080           0
     124 MOL  1    MOL  hc   4      0.000000        1.0080           0
     125 MOL  1    MOL  hc   4      0.000000        1.0080           0
     126 MOL  1    MOL  hc   4      0.000000        1.0080           0
     127 MOL  1    MOL  hc   4      0.000000        1.0080           0
     128 MOL  1    MOL  hc   4      0.000000        1.0080           0
     129 MOL  1    MOL  cp   1      0.000000       12.0112           0
     130 MOL  1    MOL  cp   1      0.000000       12.0112           0
     131 MOL  1    MOL  cp   1      0.000000       12.0112           0
     132 MOL  1    MOL  cp   1      0.000000       12.0112           0
     133 MOL  1    MOL  cp   1      0.000000       12.0112           0
     134 MOL  1    MOL  cp   1      0.000000       12.0112           0
     135 MOL  1    MOL  c1   5      0.000000       12.0112           0
     136 MOL  1    MOL  c2   3     -0.000000       12.0112           0
     137 MOL  1    MOL  hc   4      0.000000        1.0080           0
     138 MOL  1    MOL  hc   4      0.000000        1.0080           0
     139 MOL  1    MOL  hc   4      0.000000        1.0080           0
     140 MOL  1    MOL  hc   4      0.000000        1.0080           0
     141 MOL  1    MOL  hc   4      0.000000        1.0080           0
     142 MOL  1    MOL  hc   4      0.000000        1.0080           0
     143 MOL  1    MOL  hc   4      0.000000        1.0080           0
     144 MOL  1    MOL  hc   4      0.000000        1.0080           0
     145 MOL  1    MOL  cp   1      0.000000       12.0112           0
     146 MOL  1    MOL  cp   1      0.000000       12.0112           0
     147 MOL  1    MOL  cp   1      0.000000       12.0112           0
     148 MOL  1    MOL  cp   1      0.000000       12.0112           0
     149 MOL  1    MOL  cp   1      0.000000       12.0112           0
     150 MOL  1    MOL  cp   1      0.000000       12.0112           0
     151 MOL  1    MOL  c1   5      0.000000       12.0112           0
     152 MOL  1    MOL  c2   3     -0.000000       12.0112           0
     153 MOL  1    MOL  hc   4      0.000000        1.0080           0
     154 MOL  1    MOL  hc   4      0.000000        1.0080           0
     155 MOL  1    MOL  hc   4      0.000000        1.0080           0
     156 MOL  1    MOL  hc   4      0.000000        1.0080           0
     157 MOL  1    MOL  hc   4      0.000000        1.0080           0
     158 MOL  1    MOL  hc   4      0.000000        1.0080           0
     159 MOL  1    MOL  hc   4      0.000000        1.0080           0
     160 MOL  1    MOL  hc   4      0.000000        1.0080           0
     161 MOL  1    MOL  cp   1      0.000000       12.0112           0
     162 MOL  1    MOL  cp   1      0.000000       12.0112           0
     163 MOL  1    MOL  cp   1      0.000000       12.0112           0
     164 MOL  1    MOL  cp   1      0.000000       12.0112           0
     165 MOL  1    MOL  cp   1      0.000000       12.0112           0
     166 MOL  1    MOL  cp   1      0.000000       12.0112           0
     167 MOL  1    MOL  c1   5      0.000000       12.0112           0
     168 MOL  1    MOL  c2   3     -0.000000       12.0112           0
     169 MOL  1    MOL  hc   4      0.000000        1.0080           0
     170 MOL  1    MOL  hc   4      0.000000        1.0080           0
     171 MOL  1    MOL  hc   4      0.000000        1.0080           0
     172 MOL  1    MOL  hc   4      0.000000        1.0080           0
     173 MOL  1    MOL  hc   4      0.000000        1.0080           0
     174 MOL  1    MOL  hc   4      0.000000        1.0080           0
     175 MOL  1    MOL  hc   4      0.000000        1.0080           0
     176 MOL  1    MOL  hc   4      0.000000        1.0080           0
     177 MOL  1    MOL  cp   1      0.000000       12.0112           0
     178 MOL  1    MOL  cp   1      0.000000       12.0112           0
     179 MOL  1    MOL  cp   1      0.000000       12.0112           0
     180 MOL  1    MOL  cp   1      0.000000       12.0112           0
     181 MOL  1    MOL  cp   1      0.000000       12.0112           0
     182 MOL  1    MOL  cp   1      0.000000       12.0112           0
     183 MOL  1    MOL  c1   5      0.000000       12.0112           0
     184 MOL  1    MOL  c2   3     -0.000000       12.0112           0
     185 MOL  1    MOL  hc   4      0.000000        1.0080           0
     186 MOL  1    MOL  hc   4      0.000000        1.0080           0
     187 MOL  1    MOL  hc   4      0.000000        1.0080           0
     188 MOL  1    MOL  hc   4      0.000000        1.0080           0
     189 MOL  1    MOL  hc   4      0.000000        1.0080           0
     190 MOL  1    MOL  hc   4      0.000000        1.0080           0
     191 MOL  1    MOL  hc   4      0.000000        1.0080           0
     192 MOL  1    MOL  hc   4      0.000000        1.0080           0
     193 MOL  1    MOL  cp   1      0.000000       12.0112           0
     194 MOL  1    MOL  cp   1      0.000000       12.0112           0
     195 MOL  1    MOL  cp   1      0.000000       12.0112           0
     196 MOL  1    MOL  cp   1      0.000000       12.0112           0
     197 MOL  1    MOL  cp   1      0.000000       12.0112           0
     198 MOL  1    MOL  cp   1      0.000000       12.0112           0
     199 MOL  1    MOL  c1   5      0.000000       12.0112           0
     200 MOL  1    MOL  c2   3     -0.000000       12.0112           0
     201 MOL  1    MOL  hc   4      0.000000        1.0080           0
     202 MOL  1    MOL  hc   4      0.000000        1.0080           0
     203 MOL  1    MOL  hc   4      0.000000        1.0080           0
     204 MOL  1    MOL  hc   4      0.000000        1.0080           0
     205 MOL  1    MOL  hc   4      0.000000        1.0080           0
     206 MOL  1    MOL  hc   4      0.000000        1.0080           0
     207 MOL  1    MOL  hc   4      0.000000        1.0080           0
     208 MOL  1    MOL  hc   4      0.000000        1.0080           0
     209 MOL  1    MOL  cp   1      0.000000       12.0112           0
     210 MOL  1    MOL  cp   1      0.000000       12.0112           0
     211 MOL  1    MOL  cp   1      0.000000       12.0112           0
     212 MOL  1    MOL  cp   1      0.000000       12.0112           0
     213 MOL  1    MOL  cp   1      0.000000       12.0112           0
     214 MOL  1    MOL  cp   1      0.000000       12.0112           0
     215 MOL  1    MOL  c1   5      0.000000       12.0112           0
     216 MOL  1    MOL  c2   3     -0.000000       12.0112           0
     217 MOL  1    MOL  hc   4      0.000000        1.0080           0
     218 MOL  1    MOL  hc   4      0.000000        1.0080           0
     219 MOL  1    MOL  hc   4      0.000000        1.0080           0
     220 MOL  1    MOL  hc   4      0.000000        1.0080           0
     221 MOL  1    MOL  hc   4      0.000000        1.0080           0
     222 MOL  1    MOL  hc   4      0.000000        1.0080           0
     223 MOL  1    MOL  hc   4      0.000000        1.0080           0
     224 MOL  1    MOL  hc   4      0.000000        1.0080           0
     225 MOL  1    MOL  cp   1      0.000000       12.0112           0
     226 MOL  1    MOL  cp   1      0.000000       12.0112           0
     227 MOL  1    MOL  cp   1      0.000000       12.0112           0
     228 MOL  1    MOL  cp   1      0.000000       12.0112           0
     229 MOL  1    MOL  cp   1      0.000000       12.0112           0
     230 MOL  1    MOL  cp   1      0.000000       12.0112           0
     231 MOL  1    MOL  c1   5      0.000000       12.0112           0
     232 MOL  1    MOL  c2   3     -0.000000       12.0112           0
     233 MOL  1    MOL  hc   4      0.000000        1.0080           0
     234 MOL  1    MOL  hc   4      0.000000        1.0080           0
     235 MOL  1    MOL  hc   4      0.000000        1.0080           0
     236 MOL  1    MOL  hc   4      0.000000        1.0080           0
     237 MOL  1    MOL  hc   4      0.000000        1.0080           0
     238 MOL  1    MOL  hc   4      0.000000        1.0080           0
     239 MOL  1    MOL  hc   4      0.000000        1.0080           0
     240 MOL  1    MOL  hc   4      0.000000        1.0080           0
     241 MOL  1    MOL  cp   1      0.000000       12.0112           0
     242 MOL  1    MOL  cp   1      0.000000       12.0112           0
     243 MOL  1    MOL  cp   1      0.000000       12.0112           0
     244 MOL  1    MOL  cp   1      0.000000       12.0112           0
     245 MOL  1    MOL  cp   1      0.000000       12.0112           0
     246 MOL  1    MOL  cp   1      0.000000       12.0112           0
     247 MOL  1    MOL  c1   5      0.000000       12.0112           0
     248 MOL  1    MOL  c2   3     -0.000000       12.0112           0
     249 MOL  1    MOL  hc   4      0.000000        1.0080           0
     250 MOL  1    MOL  hc   4      0.000000        1.0080           0
     251 MOL  1    MOL  hc   4      0.000000        1.0080           0
     252 MOL  1    MOL  hc   4      0.000000        1.0080           0
     253 MOL  1    MOL  hc   4      0.000000        1.0080           0
     254 MOL  1    MOL  hc   4      0.000000        1.0080           0
     255 MOL  1    MOL  hc   4      0.000000        1.0080           0
     256 MOL  1    MOL  hc   4      0.000000        1.0080           0
     257 MOL  1    MOL  cp   1      0.000000       12.0112           0
     258 MOL  1    MOL  cp   1      0.000000       12.0112           0
     259 MOL  1    MOL  cp   1      0.000000       12.0112           0
     260 MOL  1    MOL  cp   1      0.000000       12.0112           0
     261 MOL  1    MOL  cp   1      0.000000       12.0112           0
     262 MOL  1    MOL  cp   1      0.000000       12.0112           0
     263 MOL  1    MOL  c1   5      0.000000       12.0112           0
     264 MOL  1    MOL  c2   3     -0.000000       12.0112           0
     265 MOL  1    MOL  hc   4      0.000000        1.0080           0
     266 MOL  1    MOL  hc   4      0.000000        1.0080           0
     267 MOL  1    MOL  hc   4      0.000000        1.0080           0
     268 MOL  1    MOL  hc   4      0.000000        1.0080           0
     269 MOL  1    MOL  hc   4      0.000000        1.0080           0
     270 MOL  1    MOL  hc   4      0.000000        1.0080           0
     271 MOL  1    MOL  hc   4      0.000000        1.0080           0
     272 MOL  1    MOL  hc   4      0.000000        1.0080           0
     273 MOL  1    MOL  cp   1      0.000000       12.0112           0
     274 MOL  1    MOL  cp   1      0.000000       12.0112           0
     275 MOL  1    MOL  cp   1      0.000000       12.0112           0
     276 MOL  1    MOL  cp   1      0.000000       12.0112           0
     277 MOL  1    MOL  cp   1      0.000000       12.0112           0
     278 MOL  1    MOL  cp   1      0.000000       12.0112           0
     279 MOL  1    MOL  c1   5      0.000000       12.0112           0
     280 MOL  1    MOL  c2   3     -0.000000       12.0112           0
     281 MOL  1    MOL  hc   4      0.000000        1.0080           0
     282 MOL  1    MOL  hc   4      0.000000        1.0080           0
     283 MOL  1    MOL  hc   4      0.000000        1.0080           0
     284 MOL  1    MOL  hc   4      0.000000        1.0080           0
     285 MOL  1    MOL  hc   4      0.000000        1.0080           0
     286 MOL  1    MOL  hc   4      0.000000        1.0080           0
     287 MOL  1    MOL  hc   4      0.000000        1.0080           0
     288 MOL  1    MOL  hc   4      0.000000        1.0080           0
     289 MOL  1    MOL  cp   1      0.000000       12.0112           0
     290 MOL  1    MOL  cp   1      0.000000       12.0112           0
     291 MOL  1    MOL  cp   1      0.000000       12.0112           0
     292 MOL  1    MOL  cp   1      0.000000       12.0112           0
     293 MOL  1    MOL  cp   1      0.000000       12.0112           0
     294 MOL  1    MOL  cp   1      0.000000       12.0112           0
     295 MOL  1    MOL  c1   5      0.000000       12.0112           0
     296 MOL  1    MOL  c2   3     -0.000000       12.0112           0
     297 MOL  1    MOL  hc   4      0.000000        1.0080           0
     298 MOL  1    MOL  hc   4      0.000000        1.0080           0
     299 MOL  1    MOL  hc   4      0.000000        1.0080           0
     300 MOL  1    MOL  hc   4      0.000000        1.0080           0
     301 MOL  1    MOL  hc   4      0.000000        1.0080           0
     302 MOL  1    MOL  hc   4      0.000000        1.0080           0
     303 MOL  1    MOL  hc   4      0.000000        1.0080           0
     304 MOL  1    MOL  hc   4      0.000000        1.0080           0
     305 MOL  1    MOL  cp   1      0.000000       12.0112           0
     306 MOL  1    MOL  cp   1      0.000000       12.0112           0
     307 MOL  1    MOL  cp   1      0.000000       12.0112           0
     308 MOL  1    MOL  cp   1      0.000000       12.0112           0
     309 MOL  1    MOL  cp   1      0.000000       12.0112           0
     310 MOL  1    MOL  cp   1      0.000000       12.0112           0
     311 MOL  1    MOL  c1   5      0.000000       12.0112           0
     312 MOL  1    MOL  c2   3     -0.000000       12.0112           0
     313 MOL  1    MOL  hc   4      0.000000        1.0080           0
     314 MOL  1    MOL  hc   4      0.000000        1.0080           0
     315 MOL  1    MOL  hc   4      0.000000        1.0080           0
     316 MOL  1    MOL  hc   4      0.000000        1.0080           0
     317 MOL  1    MOL  hc   4      0.000000        1.0080           0
     318 MOL  1    MOL  hc   4      0.000000        1.0080           0
     319 MOL  1    MOL  hc   4      0.000000        1.0080           0
     320 MOL  1    MOL  hc   4      0.000000        1.0080           0
     321 MOL  1    MOL  cp   1      0.000000       12.0112           0
     322 MOL  1    MOL  cp   1      0.000000       12.0112           0
     323 MOL  1    MOL  cp   1      0.000000       12.0112           0
     324 MOL  1    MOL  cp   1      0.000000       12.0112           0
     325 MOL  1    MOL  cp   1      0.000000       12.0112           0
     326 MOL  1    MOL  cp   1      0.000000       12.0112           0
     327 MOL  1    MOL  c1   5      0.000000       12.0112           0
     328 MOL  1    MOL  c2   3     -0.000000       12.0112           0
     329 MOL  1    MOL  hc   4      0.000000        1.0080           0
     330 MOL  1    MOL  hc   4      0.000000        1.0080           0
     331 MOL  1    MOL  hc   4      0.000000        1.0080           0
     332 MOL  1    MOL  hc   4      0.000000        1.0080           0
     333 MOL  1    MOL  hc   4      0.000000        1.0080           0
     334 MOL  1    MOL  hc   4      0.000000        1.0080           0
     335 MOL  1    MOL  hc   4      0.000000        1.0080           0
     336 MOL  1    MOL  hc   4      0.000000        1.0080           0
     337 MOL  1    MOL  cp   1      0.000000       12.0112           0
     338 MOL  1    MOL  cp   1      0.000000       12.0112           0
     339 MOL  1    MOL  cp   1      0.000000       12.0112           0
     340 MOL  1    MOL  cp   1      0.000000       12.0112           0
     341 MOL  1    MOL  cp   1      0.000000       12.0112           0
     342 MOL  1    MOL  cp   1      0.000000       12.0112           0
     343 MOL  1    MOL  c1   5      0.000000       12.0112           0
     344 MOL  1    MOL  c2   3     -0.000000       12.0112           0
     345 MOL  1    MOL  hc   4      0.000000        1.0080           0
     346 MOL  1    MOL  hc   4      0.000000        1.0080           0
     347 MOL  1    MOL  hc   4      0.000000        1.0080           0
     348 MOL  1    MOL  hc   4      0.000000        1.0080           0
     349 MOL  1    MOL  hc   4      0.000000        1.0080           0
     350 MOL  1    MOL  hc   4      0.000000        1.0080           0
     351 MOL  1    MOL  hc   4      0.000000        1.0080           0
     352 MOL  1    MOL  hc   4      0.000000        1.0080           0
     353 MOL  1    MOL  cp   1      0.000000       12.0112           0
     354 MOL  1    MOL  cp   1      0.000000       12.0112           0
     355 MOL  1    MOL  cp   1      0.000000       12.0112           0
     356 MOL  1    MOL  cp   1      0.000000       12.0112           0
     357 MOL  1    MOL  cp   1      0.000000       12.0112           0
     358 MOL  1    MOL  cp   1      0.000000       12.0112           0
     359 MOL  1    MOL  c1   5      0.000000       12.0112           0
     360 MOL  1    MOL  c2   3     -0.000000       12.0112           0
     361 MOL  1    MOL  hc   4      0.000000        1.0080           0
     362 MOL  1    MOL  hc   4      0.000000        1.0080           0
     363 MOL  1    MOL  hc   4      0.000000        1.0080           0
     364 MOL  1    MOL  hc   4      0.000000        1.0080           0
     365 MOL  1    MOL  hc   4      0.000000        1.0080           0
     366 MOL  1    MOL  hc   4      0.000000        1.0080           0
     367 MOL  1    MOL  hc   4      0.000000        1.0080           0
     368 MOL  1    MOL  hc   4      0.000000        1.0080           0
     369 MOL  1    MOL  cp   1      0.000000       12.0112           0
     370 MOL  1    MOL  cp   1      0.000000       12.0112           0
     371 MOL  1    MOL  cp   1      0.000000       12.0112           0
     372 MOL  1    MOL  cp   1      0.000000       12.0112           0
     373 MOL  1    MOL  cp   1      0.000000       12.0112           0
     374 MOL  1    MOL  cp   1      0.000000       12.0112           0
     375 MOL  1    MOL  c1   5      0.000000       12.0112           0
     376 MOL  1    MOL  c2   3     -0.000000       12.0112           0
     377 MOL  1    MOL  hc   4      0.000000        1.0080           0
     378 MOL  1    MOL  hc   4      0.000000        1.0080           0
     379 MOL  1    MOL  hc   4      0.000000        1.0080           0
     380 MOL  1    MOL  hc   4      0.000000        1.0080           0
     381 MOL  1    MOL  hc   4      0.000000        1.0080           0
     382 MOL  1    MOL  hc   4      0.000000        1.0080           0
     383 MOL  1    MOL  hc   4      0.000000        1.0080           0
     384 MOL  1    MOL  hc   4      0.000000        1.0080           0
     385 MOL  1    MOL  cp   1      0.000000       12.0112           0
     386 MOL  1    MOL  cp   1      0.000000       12.0112           0
     387 MOL  1    MOL  cp   1      0.000000       12.0112           0
     388 MOL  1    MOL  cp   1      0.000000       12.0112           0
     389 MOL  1    MOL  cp   1      0.000000       12.0112           0
     390 MOL  1    MOL  cp   1      0.000000       12.0112           0
     391 MOL  1    MOL  c1   5      0.000000       12.0112           0
     392 MOL  1    MOL  c2   3     -0.000000       12.0112           0
     393 MOL  1    MOL  hc   4      0.000000        1.0080           0
     394 MOL  1    MOL  hc   4      0.000000        1.0080           0
     395 MOL  1    MOL  hc   4      0.000000        1.0080           0
     396 MOL  1    MOL  hc   4      0.000000        1.0080           0
     397 MOL  1    MOL  hc   4      0.000000        1.0080           0
     398 MOL  1    MOL  hc   4      0.000000        1.0080           0
     399 MOL  1    MOL  hc   4      0.000000        1.0080           0
     400 MOL  1    MOL  hc   4      0.000000        1.0080           0
     401 MOL  1    MOL  cp   1      0.000000       12.0112           0
     402 MOL  1    MOL  cp   1      0.000000       12.0112           0
     403 MOL  1    MOL  cp   1      0.000000       12.0112           0
     404 MOL  1    MOL  cp   1      0.000000       12.0112           0
     405 MOL  1    MOL  cp   1      0.000000       12.0112           0
     406 MOL  1    MOL  cp   1      0.000000       12.0112           0
     407 MOL  1    MOL  c1   5      0.000000       12.0112           0
     408 MOL  1    MOL  c2   3     -0.000000       12.0112           0
     409 MOL  1    MOL  hc   4      0.000000        1.0080           0
     410 MOL  1    MOL  hc   4      0.000000        1.0080           0
     411 MOL  1    MOL  hc   4      0.000000        1.0080           0
     412 MOL  1    MOL  hc   4      0.000000        1.0080           0
     413 MOL  1    MOL  hc   4      0.000000        1.0080           0
     414 MOL  1    MOL  hc   4      0.000000        1.0080           0
     415 MOL  1    MOL  hc   4      0.000000        1.0080           0
     416 MOL  1    MOL  hc   4      0.000000        1.0080           0
     417 MOL  1    MOL  cp   1      0.000000       12.0112           0
     418 MOL  1    MOL  cp   1      0.000000       12.0112           0
     419 MOL  1    MOL  cp   1      0.000000       12.0112           0
     420 MOL  1    MOL  cp   1      0.000000       12.0112           0
     421 MOL  1    MOL  cp   1      0.000000       12.0112           0
     422 MOL  1    MOL  cp   1      0.000000       12.0112           0
     423 MOL  1    MOL  c1   5      0.000000       12.0112           0
     424 MOL  1    MOL  c2   3     -0.000000       12.0112           0
     425 MOL  1    MOL  hc   4      0.000000        1.0080           0
     426 MOL  1    MOL  hc   4      0.000000        1.0080           0
     427 MOL  1    MOL  hc   4      0.000000        1.0080           0
     428 MOL  1    MOL  hc   4      0.000000        1.0080           0
     429 MOL  1    MOL  hc   4      0.000000        1.0080           0
     430 MOL  1    MOL  hc   4      0.000000        1.0080           0
     431 MOL  1    MOL  hc   4      0.000000        1.0080           0
     432 MOL  1    MOL  hc   4      0.000000        1.0080           0
     433 MOL  1    MOL  cp   1      0.000000       12.0112           0
     434 MOL  1    MOL  cp   1      0.000000       12.0112           0
     435 MOL  1    MOL  cp   1      0.000000       12.0112           0
     436 MOL  1    MOL  cp   1      0.000000       12.0112           0
     437 MOL  1    MOL  cp   1      0.000000       12.0112           0
     438 MOL  1    MOL  cp   1      0.000000       12.0112           0
     439 MOL  1    MOL  c1   5      0.000000       12.0112           0
     440 MOL  1    MOL  c2   3     -0.000000       12.0112           0
     441 MOL  1    MOL  hc   4      0.000000        1.0080           0
     442 MOL  1    MOL  hc   4      0.000000        1.0080           0
     443 MOL  1    MOL  hc   4      0.000000        1.0080           0
     444 MOL  1    MOL  hc   4      0.000000        1.0080           0
     445 MOL  1    MOL  hc   4      0.000000        1.0080           0
     446 MOL  1    MOL  hc   4      0.000000        1.0080           0
     447 MOL  1    MOL  hc   4      0.000000        1.0080           0
     448 MOL  1    MOL  hc   4      0.000000        1.0080           0
     449 MOL  1    MOL  cp   1      0.000000       12.0112           0
     450 MOL  1    MOL  cp   1      0.000000       12.0112           0
     451 MOL  1    MOL  cp   1      0.000000       12.0112           0
     452 MOL  1    MOL  cp   1      0.000000       12.0112           0
     453 MOL  1    MOL  cp   1      0.000000       12.0112           0
     454 MOL  1    MOL  cp   1      0.000000       12.0112           0
     455 MOL  1    MOL  c1   5      0.000000       12.0112           0
     456 MOL  1    MOL  c2   3     -0.000000       12.0112           0
     457 MOL  1    MOL  hc   4      0.000000        1.0080           0
     458 MOL  1    MOL  hc   4      0.000000        1.0080           0
     459 MOL  1    MOL  hc   4      0.000000        1.0080           0
     460 MOL  1    MOL  hc   4      0.000000        1.0080           0
     461 MOL  1    MOL  hc   4      0.000000        1.0080           0
     462 MOL  1    MOL  hc   4      0.000000        1.0080           0
     463 MOL  1    MOL  hc   4      0.000000        1.0080           0
     464 MOL  1    MOL  hc   4      0.000000        1.0080           0
     465 MOL  1    MOL  cp   1      0.000000       12.0112           0
     466 MOL  1    MOL  cp   1      0.000000       12.0112           0
     467 MOL  1    MOL  cp   1      0.000000       12.0112           0
     468 MOL  1    MOL  cp   1      0.000000       12.0112           0
     469 MOL  1    MOL  cp   1      0.000000       12.0112           0
     470 MOL  1    MOL  cp   1      0.000000       12.0112           0
     471 MOL  1    MOL  c1   5      0.000000       12.0112           0
     472 MOL  1    MOL  c2   3     -0.000000       12.0112           0
     473 MOL  1    MOL  hc   4      0.000000        1.0080           0
     474 MOL  1    MOL  hc   4      0.000000        1.0080           0
     475 MOL  1    MOL  hc   4      0.000000        1.0080           0
     476 MOL  1    MOL  hc   4      0.000000        1.0080           0
     477 MOL  1    MOL  hc   4      0.000000        1.0080           0
     478 MOL  1    MOL  hc   4      0.000000        1.0080           0
     479 MOL  1    MOL  hc   4      0.000000        1.0080           0
     480 MOL  1    MOL  hc   4      0.000000        1.0080           0
     481 MOL  1    MOL  cp   1      0.000000       12.0112           0
     482 MOL  1    MOL  cp   1      0.000000       12.0112           0
     483 MOL  1    MOL  cp   1      0.000000       12.0112           0
     484 MOL  1    MOL  cp   1      0.000000       12.0112           0
     485 MOL  1    MOL  cp   1      0.000000       12.0112           0
     486 MOL  1    MOL  cp   1      0.000000       12.0112           0
     487 MOL  1    MOL  c1   5      0.000000       12.0112           0
     488 MOL  1    MOL  c2   3     -0.000000       12.0112           0
     489 MOL  1    MOL  hc   4      0.000000        1.0080           0
     490 MOL  1    MOL  hc   4      0.000000        1.0080           0
     491 MOL  1    MOL  hc   4      0.000000        1.0080           0
     492 MOL  1    MOL  hc   4      0.000000        1.0080           0
     493 MOL  1    MOL  hc   4      0.000000        1.0080           0
     494 MOL  1    MOL  hc   4      0.000000        1.0080           0
     495 MOL  1    MOL  hc   4      0.000000        1.0080           0
     496 MOL  1    MOL  hc   4      0.000000        1.0080           0
     497 MOL  1    MOL  cp   1      0.000000       12.0112           0
     498 MOL  1    MOL  cp   1      0.000000       12.0112           0
     499 MOL  1    MOL  cp   1      0.000000       12.0112           0
     500 MOL  1    MOL  cp   1      0.000000       12.0112           0
     501 MOL  1    MOL  cp   1      0.000000       12.0112           0
     502 MOL  1    MOL  cp   1      0.000000       12.0112           0
     503 MOL  1    MOL  c1   5      0.000000       12.0112           0
     504 MOL  1    MOL  c2   3     -0.000000       12.0112           0
     505 MOL  1    MOL  hc   4      0.000000        1.0080           0
     506 MOL  1    MOL  hc   4      0.000000        1.0080           0
     507 MOL  1    MOL  hc   4      0.000000        1.0080           0
     508 MOL  1    MOL  hc   4      0.000000        1.0080           0
     509 MOL  1    MOL  hc   4      0.000000        1.0080           0
     510 MOL  1    MOL  hc   4      0.000000        1.0080           0
     511 MOL  1    MOL  hc   4      0.000000        1.0080           0
     512 MOL  1    MOL  hc   4      0.000000        1.0080           0
     513 MOL  1    MOL  cp   1      0.000000       12.0112           0
     514 MOL  1    MOL  cp   1      0.000000       12.0112           0
     515 MOL  1    MOL  cp   1      0.000000       12.0112           0
     516 MOL  1    MOL  cp   1      0.000000       12.0112           0
     517 MOL  1    MOL  cp   1      0.000000       12.0112           0
     518 MOL  1    MOL  cp   1      0.000000       12.0112           0
     519 MOL  1    MOL  c1   5      0.000000       12.0112           0
     520 MOL  1    MOL  c2   3     -0.000000       12.0112           0
     521 MOL  1    MOL  hc   4      0.000000        1.0080           0
     522 MOL  1    MOL  hc   4      0.000000        1.0080           0
     523 MOL  1    MOL  hc   4      0.000000        1.0080           0
     524 MOL  1    MOL  hc   4      0.000000        1.0080           0
     525 MOL  1    MOL  hc   4      0.000000        1.0080           0
     526 MOL  1    MOL  hc   4      0.000000        1.0080           0
     527 MOL  1    MOL  hc   4      0.000000        1.0080           0
     528 MOL  1    MOL  hc   4      0.000000        1.0080           0
     529 MOL  1    MOL  cp   1      0.000000       12.0112           0
     530 MOL  1    MOL  cp   1      0.000000       12.0112           0
     531 MOL  1    MOL  cp   1      0.000000       12.0112           0
     532 MOL  1    MOL  cp   1      0.000000       12.0112           0
     533 MOL  1    MOL  cp   1      0.000000       12.0112           0
     534 MOL  1    MOL  cp   1      0.000000       12.0112           0
     535 MOL  1    MOL  c1   5      0.000000       12.0112           0
     536 MOL  1    MOL  c2   3     -0.000000       12.0112           0
     537 MOL  1    MOL  hc   4      0.000000        1.0080           0
     538 MOL  1    MOL  hc   4      0.000000        1.0080           0
     539 MOL  1    MOL  hc   4      0.000000        1.0080           0
     540 MOL  1    MOL  hc   4      0.000000        1.0080           0
     541 MOL  1    MOL  hc   4      0.000000        1.0080           0
     542 MOL  1    MOL  hc   4      0.000000        1.0080           0
     543 MOL  1    MOL  hc   4      0.000000        1.0080           0
     544 MOL  1    MOL  hc   4      0.000000        1.0080           0
     545 MOL  1    MOL  cp   1      0.000000       12.0112           0
     546 MOL  1    MOL  cp   1      0.000000       12.0112           0
     547 MOL  1    MOL  cp   1      0.000000       12.0112           0
     548 MOL  1    MOL  cp   1      0.000000       12.0112           0
     549 MOL  1    MOL  cp   1      0.000000       12.0112           0
     550 MOL  1    MOL  cp   1      0.000000       12.0112           0
     551 MOL  1    MOL  Lc1  2      0.000000       12.0112           0
     552 MOL  1    MOL  c2   3     -0.000000       12.0112           0
     553 MOL  1    MOL  hc   4      0.000000        1.0080           0
     554 MOL  1    MOL  hc   4      0.000000        1.0080           0
     555 MOL  1    MOL  hc   4      0.000000        1.0080           0
     556 MOL  1    MOL  hc   4      0.000000        1.0080           0
     557 MOL  1    MOL  hc   4      0.000000        1.0080           0
     558 MOL  1    MOL  hc   4      0.000000        1.0080           0
     559 MOL  1    MOL  hc   4      0.000000        1.0080           0
     560 MOL  1    MOL  hc   4      0.000000        1.0080           0
     561 MOL  1    MOL  cp   1      0.000000       12.0112           0
     562 MOL  1    MOL  cp   1      0.000000       12.0112           0
     563 MOL  1    MOL  cp   1      0.000000       12.0112           0
     564 MOL  1    MOL  cp   1      0.000000       12.0112           0
     565 MOL  1    MOL  cp   1      0.000000       12.0112           0
     566 MOL  1    MOL  cp   1      0.000000       12.0112           0
     567 MOL  1    MOL  c1   5      0.000000       12.0112           0
     568 MOL  1    MOL  c2   3     -0.000000       12.0112           0
     569 MOL  1    MOL  hc   4      0.000000        1.0080           0
     570 MOL  1    MOL  hc   4      0.000000        1.0080           0
     571 MOL  1    MOL  hc   4      0.000000        1.0080           0
     572 MOL  1    MOL  hc   4      0.000000        1.0080           0
     573 MOL  1    MOL  hc   4      0.000000        1.0080           0
     574 MOL  1    MOL  hc   4      0.000000        1.0080           0
     575 MOL  1    MOL  hc   4      0.000000        1.0080           0
     576 MOL  1    MOL  hc   4      0.000000        1.0080           0
     577 MOL  1    MOL  cp   1      0.000000       12.0112           0
     578 MOL  1    MOL  cp   1      0.000000       12.0112           0
     579 MOL  1    MOL  cp   1      0.000000       12.0112           0
     580 MOL  1    MOL  cp   1      0.000000       12.0112           0
     581 MOL  1    MOL  cp   1      0.000000       12.0112           0
     582 MOL  1    MOL  cp   1      0.000000       12.0112           0
     583 MOL  1    MOL  c1   5      0.000000       12.0112           0
     584 MOL  1    MOL  c2   3     -0.000000       12.0112           0
     585 MOL  1    MOL  hc   4      0.000000        1.0080           0
     586 MOL  1    MOL  hc   4      0.000000        1.0080           0
     587 MOL  1    MOL  hc   4      0.000000        1.0080           0
     588 MOL  1    MOL  hc   4      0.000000        1.0080           0
     589 MOL  1    MOL  hc   4      0.000000        1.0080           0
     590 MOL  1    MOL  hc   4      0.000000        1.0080           0
     591 MOL  1    MOL  hc   4      0.000000        1.0080           0
     592 MOL  1    MOL  hc   4      0.000000        1.0080           0
     593 MOL  1    MOL  cp   1      0.000000       12.0112           0
     594 MOL  1    MOL  cp   1      0.000000       12.0112           0
     595 MOL  1    MOL  cp   1      0.000000       12.0112           0
     596 MOL  1    MOL  cp   1      0.000000       12.0112           0
     597 MOL  1    MOL  cp   1      0.000000       12.0112           0
     598 MOL  1    MOL  cp   1      0.000000       12.0112           0
     599 MOL  1    MOL  c1   5      0.000000       12.0112           0
     600 MOL  1    MOL  c2   3     -0.000000       12.0112           0
     601 MOL  1    MOL  hc   4      0.000000        1.0080           0
     602 MOL  1    MOL  hc   4      0.000000        1.0080           0
     603 MOL  1    MOL  hc   4      0.000000        1.0080           0
     604 MOL  1    MOL  hc   4      0.000000        1.0080           0
     605 MOL  1    MOL  hc   4      0.000000        1.0080           0
     606 MOL  1    MOL  hc   4      0.000000        1.0080           0
     607 MOL  1    MOL  hc   4      0.000000        1.0080           0
     608 MOL  1    MOL  hc   4      0.000000        1.0080           0
     609 MOL  1    MOL  cp   1      0.000000       12.0112           0
     610 MOL  1    MOL  cp   1      0.000000       12.0112           0
     611 MOL  1    MOL  cp   1      0.000000       12.0112           0
     612 MOL  1    MOL  cp   1      0.000000       12.0112           0
     613 MOL  1    MOL  cp   1      0.000000       12.0112           0
     614 MOL  1    MOL  cp   1      0.000000       12.0112           0
     615 MOL  1    MOL  c1   5      0.000000       12.0112           0
     616 MOL  1    MOL  c2   3     -0.000000       12.0112           0
     617 MOL  1    MOL  hc   4      0.000000        1.0080           0
     618 MOL  1    MOL  hc   4      0.000000        1.0080           0
     619 MOL  1    MOL  hc   4      0.000000        1.0080           0
     620 MOL  1    MOL  hc   4      0.000000        1.0080           0
     621 MOL  1    MOL  hc   4      0.000000        1.0080           0
     622 MOL  1    MOL  hc   4      0.000000        1.0080           0
     623 MOL  1    MOL  hc   4      0.000000        1.0080           0
     624 MOL  1    MOL  hc   4      0.000000        1.0080           0
     625 MOL  1    MOL  cp   1      0.000000       12.0112           0
     626 MOL  1    MOL  cp   1      0.000000       12.0112           0
     627 MOL  1    MOL  cp   1      0.000000       12.0112           0
     628 MOL  1    MOL  cp   1      0.000000       12.0112           0
     629 MOL  1    MOL  cp   1      0.000000       12.0112           0
     630 MOL  1    MOL  cp   1      0.000000       12.0112           0
     631 MOL  1    MOL  c1   5      0.000000       12.0112           0
     632 MOL  1    MOL  c2   3     -0.000000       12.0112           0
     633 MOL  1    MOL  hc   4      0.000000        1.0080           0
     634 MOL  1    MOL  hc   4      0.000000        1.0080           0
     635 MOL  1    MOL  hc   4      0.000000        1.0080           0
     636 MOL  1    MOL  hc   4      0.000000        1.0080           0
     637 MOL  1    MOL  hc   4      0.000000        1.0080           0
     638 MOL  1    MOL  hc   4      0.000000        1.0080           0
     639 MOL  1    MOL  hc   4      0.000000        1.0080           0
     640 MOL  1    MOL  hc   4      0.000000        1.0080           0
     641 MOL  1    MOL  cp   1      0.000000       12.0112           0
     642 MOL  1    MOL  cp   1      0.000000       12.0112           0
     643 MOL  1    MOL  cp   1      0.000000       12.0112           0
     644 MOL  1    MOL  cp   1      0.000000       12.0112           0
     645 MOL  1    MOL  cp   1      0.000000       12.0112           0
     646 MOL  1    MOL  cp   1      0.000000       12.0112           0
     647 MOL  1    MOL  c1   5      0.000000       12.0112           0
     648 MOL  1    MOL  c2   3     -0.000000       12.0112           0
     649 MOL  1    MOL  hc   4      0.000000        1.0080           0
     650 MOL  1    MOL  hc   4      0.000000        1.0080           0
     651 MOL  1    MOL  hc   4      0.000000        1.0080           0
     652 MOL  1    MOL  hc   4      0.000000        1.0080           0
     653 MOL  1    MOL  hc   4      0.000000        1.0080           0
     654 MOL  1    MOL  hc   4      0.000000        1.0080           0
     655 MOL  1    MOL  hc   4      0.000000        1.0080           0
     656 MOL  1    MOL  hc   4      0.000000        1.0080           0
     657 MOL  1    MOL  cp   1      0.000000       12.0112           0
     658 MOL  1    MOL  cp   1      0.000000       12.0112           0
     659 MOL  1    MOL  cp   1      0.000000       12.0112           0
     660 MOL  1    MOL  cp   1      0.000000       12.0112           0
     661 MOL  1    MOL  cp   1      0.000000       12.0112           0
     662 MOL  1    MOL  cp   1      0.000000       12.0112           0
     663 MOL  1    MOL  c1   5      0.000000       12.0112           0
     664 MOL  1    MOL  c2   3     -0.000000       12.0112           0
     665 MOL  1    MOL  hc   4      0.000000        1.0080           0
     666 MOL  1    MOL  hc   4      0.000000        1.0080           0
     667 MOL  1    MOL  hc   4      0.000000        1.0080           0
     668 MOL  1    MOL  hc   4      0.000000        1.0080           0
     669 MOL  1    MOL  hc   4      0.000000        1.0080           0
     670 MOL  1    MOL  hc   4      0.000000        1.0080           0
     671 MOL  1    MOL  hc   4      0.000000        1.0080           0
     672 MOL  1    MOL  hc   4      0.000000        1.0080           0
     673 MOL  1    MOL  cp   1      0.000000       12.0112           0
     674 MOL  1    MOL  cp   1      0.000000       12.0112           0
     675 MOL  1    MOL  cp   1      0.000000       12.0112           0
     676 MOL  1    MOL  cp   1      0.000000       12.0112           0
     677 MOL  1    MOL  cp   1      0.000000       12.0112           0
     678 MOL  1    MOL  cp   1      0.000000       12.0112           0
     679 MOL  1    MOL  c1   5      0.000000       12.0112           0
     680 MOL  1    MOL  Lc2  6     -0.000000       12.0112           0
     681 MOL  1    MOL  hc   4      0.000000        1.0080           0
     682 MOL  1    MOL  hc   4      0.000000        1.0080           0
     683 MOL  1    MOL  hc   4      0.000000        1.0080           0
     684 MOL  1    MOL  hc   4      0.000000        1.0080           0
     685 MOL  1    MOL  hc   4      0.000000        1.0080           0
     686 MOL  1    MOL  hc   4      0.000000        1.0080           0
     687 MOL  1    MOL  hc   4      0.000000        1.0080           0
     688 MOL  1    MOL  hc   4      0.000000        1.0080           0
     689 MOL  1    MOL  cp   1      0.000000       12.0112           0
     690 MOL  1    MOL  cp   1      0.000000       12.0112           0
     691 MOL  1    MOL  cp   1      0.000000       12.0112           0
     692 MOL  1    MOL  cp   1      0.000000       12.0112           0
     693 MOL  1    MOL  cp   1      0.000000       12.0112           0
     694 MOL  1    MOL  cp   1      0.000000       12.0112           0
     695 MOL  1    MOL  c1   5      0.000000       12.0112           0
     696 MOL  1    MOL  c2   3     -0.000000       12.0112           0
     697 MOL  1    MOL  hc   4      0.000000        1.0080           0
     698 MOL  1    MOL  hc   4      0.000000        1.0080           0
     699 MOL  1    MOL  hc   4      0.000000        1.0080           0
     700 MOL  1    MOL  hc   4      0.000000        1.0080           0
     701 MOL  1    MOL  hc   4      0.000000        1.0080           0
     702 MOL  1    MOL  hc   4      0.000000        1.0080           0
     703 MOL  1    MOL  hc   4      0.000000        1.0080           0
     704 MOL  1    MOL  hc   4      0.000000        1.0080           0
     705 MOL  1    MOL  cp   1      0.000000       12.0112           0
     706 MOL  1    MOL  cp   1      0.000000       12.0112           0
     707 MOL  1    MOL  cp   1      0.000000       12.0112           0
     708 MOL  1    MOL  cp   1      0.000000       12.0112           0
     709 MOL  1    MOL  cp   1      0.000000       12.0112           0
     710 MOL  1    MOL  cp   1      0.000000       12.0112           0
     711 MOL  1    MOL  c1   5      0.000000       12.0112           0
     712 MOL  1    MOL  c2   3     -0.000000       12.0112           0
     713 MOL  1    MOL  hc   4      0.000000        1.0080           0
     714 MOL  1    MOL  hc   4      0.000000        1.0080           0
     715 MOL  1    MOL  hc   4      0.000000        1.0080           0
     716 MOL  1    MOL  hc   4      0.000000        1.0080           0
     717 MOL  1    MOL  hc   4      0.000000        1.0080           0
     718 MOL  1    MOL  hc   4      0.000000        1.0080           0
     719 MOL  1    MOL  hc   4      0.000000        1.0080           0
     720 MOL  1    MOL  hc   4      0.000000        1.0080           0
     721 MOL  1    MOL  cp   1      0.000000       12.0112           0
     722 MOL  1    MOL  cp   1      0.000000       12.0112           0
     723 MOL  1    MOL  cp   1      0.000000       12.0112           0
     724 MOL  1    MOL  cp   1      0.000000       12.0112           0
     725 MOL  1    MOL  cp   1      0.000000       12.0112           0
     726 MOL  1    MOL  cp   1      0.000000       12.0112           0
     727 MOL  1    MOL  c1   5      0.000000       12.0112           0
     728 MOL  1    MOL  c2   3     -0.000000       12.0112           0
     729 MOL  1    MOL  hc   4      0.000000        1.0080           0
     730 MOL  1    MOL  hc   4      0.000000        1.0080           0
     731 MOL  1    MOL  hc   4      0.000000        1.0080           0
     732 MOL  1    MOL  hc   4      0.000000        1.0080           0
     733 MOL  1    MOL  hc   4      0.000000        1.0080           0
     734 MOL  1    MOL  hc   4      0.000000        1.0080           0
     735 MOL  1    MOL  hc   4      0.000000        1.0080           0
     736 MOL  1    MOL  hc   4      0.000000        1.0080           0
     737 MOL  1    MOL  cp   1      0.000000       12.0112           0
     738 MOL  1    MOL  cp   1      0.000000       12.0112           0
     739 MOL  1    MOL  cp   1      0.000000       12.0112           0
     740 MOL  1    MOL  cp   1      0.000000       12.0112           0
     741 MOL  1    MOL  cp   1      0.000000       12.0112           0
     742 MOL  1    MOL  cp   1      0.000000       12.0112           0
     743 MOL  1    MOL  c1   5      0.000000       12.0112           0
     744 MOL  1    MOL  c2   3     -0.000000       12.0112           0
     745 MOL  1    MOL  hc   4      0.000000        1.0080           0
     746 MOL  1    MOL  hc   4      0.000000        1.0080           0
     747 MOL  1    MOL  hc   4      0.000000        1.0080           0
     748 MOL  1    MOL  hc   4      0.000000        1.0080           0
     749 MOL  1    MOL  hc   4      0.000000        1.0080           0
     750 MOL  1    MOL  hc   4      0.000000        1.0080           0
     751 MOL  1    MOL  hc   4      0.000000        1.0080           0
     752 MOL  1    MOL  hc   4      0.000000        1.0080           0
     753 MOL  1    MOL  cp   1      0.000000       12.0112           0
     754 MOL  1    MOL  cp   1      0.000000       12.0112           0
     755 MOL  1    MOL  cp   1      0.000000       12.0112           0
     756 MOL  1    MOL  cp   1      0.000000       12.0112           0
     757 MOL  1    MOL  cp   1      0.000000       12.0112           0
     758 MOL  1    MOL  cp   1      0.000000       12.0112           0
     759 MOL  1    MOL  c1   5      0.000000       12.0112           0
     760 MOL  1    MOL  c2   3     -0.000000       12.0112           0
     761 MOL  1    MOL  hc   4      0.000000        1.0080           0
     762 MOL  1    MOL  hc   4      0.000000        1.0080           0
     763 MOL  1    MOL  hc   4      0.000000        1.0080           0
     764 MOL  1    MOL  hc   4      0.000000        1.0080           0
     765 MOL  1    MOL  hc   4      0.000000        1.0080           0
     766 MOL  1    MOL  hc   4      0.000000        1.0080           0
     767 MOL  1    MOL  hc   4      0.000000        1.0080           0
     768 MOL  1    MOL  hc   4      0.000000        1.0080           0
     769 MOL  1    MOL  cp   1      0.000000       12.0112           0
     770 MOL  1    MOL  cp   1      0.000000       12.0112           0
     771 MOL  1    MOL  cp   1      0.000000       12.0112           0
     772 MOL  1    MOL  cp   1      0.000000       12.0112           0
     773 MOL  1    MOL  cp   1      0.000000       12.0112           0
     774 MOL  1    MOL  cp   1      0.000000       12.0112           0
     775 MOL  1    MOL  c1   5      0.000000       12.0112           0
     776 MOL  1    MOL  c2   3     -0.000000       12.0112           0
     777 MOL  1    MOL  hc   4      0.000000        1.0080           0
     778 MOL  1    MOL  hc   4      0.000000        1.0080           0
     779 MOL  1    MOL  hc   4      0.000000        1.0080           0
     780 MOL  1    MOL  hc   4      0.000000        1.0080           0
     781 MOL  1    MOL  hc   4      0.000000        1.0080           0
     782 MOL  1    MOL  hc   4      0.000000        1.0080           0
     783 MOL  1    MOL  hc   4      0.000000        1.0080           0
     784 MOL  1    MOL  hc   4      0.000000        1.0080           0
     785 MOL  1    MOL  cp   1      0.000000       12.0112           0
     786 MOL  1    MOL  cp   1      0.000000       12.0112           0
     787 MOL  1    MOL  cp   1      0.000000       12.0112           0
     788 MOL  1    MOL  cp   1      0.000000       12.0112           0
     789 MOL  1    MOL  cp   1      0.000000       12.0112           0
     790 MOL  1    MOL  cp   1      0.000000       12.0112           0
     791 MOL  1    MOL  c1   5      0.000000       12.0112           0
     792 MOL  1    MOL  c2   3     -0.000000       12.0112           0
     793 MOL  1    MOL  hc   4      0.000000        1.0080           0
     794 MOL  1    MOL  hc   4      0.000000        1.0080           0
     795 MOL  1    MOL  hc   4      0.000000        1.0080           0
     796 MOL  1    MOL  hc   4      0.000000        1.0080           0
     797 MOL  1    MOL  hc   4      0.000000        1.0080           0
     798 MOL  1    MOL  hc   4      0.000000        1.0080           0
     799 MOL  1    MOL  hc   4      0.000000        1.0080           0
     800 MOL  1    MOL  hc   4      0.000000        1.0080           0

     849 !NBOND: bonds
       7       3       7       8       7      14       7     296
      49      50      49      54      49      57      81      82
      81      86      81      89      82      83      82      90
     225     226     225     230     225     233     226     227
     226     234     227     228     228     229     228     235
     229     230     229     236     230     237     231     227
     231     232     231     238     231     424     232     239
     232     240     273     274     273     278     273     281
     276     277     276     283     277     278     277     284
     278     285     289     290     289     294     289     297
     290     291     290     298     294     301     424     431
     424     432     433     434     433     438     433     441
     438     445     293     294     293     300     275     276
     614     621      54      61     551     547     551     552
     551     558     577     578     577     582     577     585
     578     579     578     586     579     580     580     581
     580     587     581     582     581     588     582     589
     583     579     583     584     583     590     583     696
     584     591     584     592     657     658     657     662
     657     665     658     659     658     666     659     660
     660     661     660     667     661     662     661     668
     662     669     663     659     663     664     663     670
     663     584     664     671     664     672     696     703
     696     704     712     719     712     720     711     707
     711     712     711     718     711     280     274     275
     274     282     280     287     280     288      34      35
      34      42      35      36      36      37      36      43
      37      38      37      44     305     306     305     310
     305     313      55      51      55      56      55      62
      55      40     616     623     616     624      83      84
      84      85      84      91      87      83      87      88
      87      94      87     312      88      95      88      96
     113     114     113     118     113     121     114     115
     114     122     115     116     116     117     116     123
     117     118     117     124     118     125     119     115
     119     120     119     126     119      88     120     127
     120     128     161     162     161     166     161     169
     162     163     162     170     163     164     164     165
     164     171     165     166     165     172     166     173
     168     175     168     176      56      63      56      64
     611     612     279     275     279     280     279     286
     279     120     291     292     292     293     292     299
     295     291     295     296     295     302     295     616
     296     303     296     304     306     307     306     314
     307     308     311     307     311     312     311     318
     311     456     312     319     312     320      50      51
      50      58     437     438     437     444     449     450
     449     454     449     457     450     451     450     458
     451     452     452     453     452     459     453     454
     453     460     454     461     455     451     455     456
     455     462     455      56     456     463     456     464
     613     614     613     620     530     531     530     538
     529     530     529     534     529     537     707     708
     612     613     612     619      51      52     101     102
     101     108     102     109     546     547     546     554
     183     179     183     184     183     190     183       8
     184     191     184     192     502     509     465     466
     465     470     465     473     785     786     785     790
     785     793     468     469     468     475     469     470
     469     476     470     477     791     787     791     792
     791     798     791     536     531     532     535     531
     535     536     535     542     535     232     536     543
     536     544     545     546     545     550     545     553
     547     548     548     549     548     555     549     550
     549     556     550     557     594     595     594     602
     595     596     596     597     596     603     597     598
     597     604     599     595     599     600     599     606
     599     792     600     607     600     608     609     610
     609     614     609     617     178     179     178     186
     792     799     792     800     689     690     689     694
     689     697     690     691     690     698     691     692
     692     693     692     699     693     694     693     700
     694     701     695     691     695     696     695     702
     695     760     753     754     753     758     753     761
     754     755     754     762     755     756     756     757
     756     763     758     765     759     755     759     760
     759     766     759     184     760     767     760     768
     786     787     786     794     787     788     177     178
     177     182     177     185      86      93      33      34
      33      38      33      41      38      45     323     324
      65      66      65      70      65      73      66      67
      66      74      67      68      68      69      68      75
      69      70      69      76      70      77      72      79
      72      80     486     493     513     514     513     518
     513     521     129     130     129     134     129     137
     130     131     130     138     131     132     134     141
     135     131     135     136     135     142     135     328
     136     143     136     144     327     323     327     328
     327     334     327      72     328     335     328     336
     373     374     373     380     374     381     385     386
     385     390     385     393     386     387     386     394
     387     388     388     389     388     395     389     390
     389     396     390     397     391     387     391     392
     391     398     391     504     392     399     392     400
     481     482     481     486     481     489     482     483
     482     490     483     484     501     502     501     508
     498     499     498     506     499     500     500     501
     500     507     503     499     503     504     503     510
     503     136     504     511     504     512     532     533
     532     539     533     534     533     540     534     541
     610     611     610     618     132     133     132     139
     629     630     629     636     630     637     788     789
     788     795     789     790     789     796     790     797
     167     163     167     168     167     174     167     392
     487     483     487     488     487     494     487     600
      71      67      71      72      71      78      71     264
     488     495     488     496     435     436     436     437
     436     443     133     134     133     140     497     498
     497     502     497     505      85      86      85      92
     615     611     615     616     615     622     615     168
       1       2       1       6       1       9       2       3
       2      10       3       4       5       6       5      12
       6      13      19      20      20      21      20      27
      21      22      21      28      23      19      23      24
      23      30      23     712      24      31      24      32
      53      54      53      60     216     223     216     224
     344     351     344     352     145     146     145     150
     145     153     146     147     146     154     147     148
     148     149     148     155     149     150     149     156
     150     157     151     147     151     152     151     158
     151     664     193     194     193     198     193     201
     197     198     197     204     198     205     194     195
     194     202     353     354     353     358     353     361
     354     355     354     362     355     356     356     357
     356     363     357     358     357     364     358     365
     359     355     359     360     359     366     359     552
     417     418     417     422     417     425     418     419
     418     426     419     420     420     421     420     427
     421     422     421     428     422     429     423     419
     423     424     423     430     423     344       8      15
       8      16     561     562     561     566     561     569
     562     563     562     570     563     564     564     565
     564     571     565     566     565     572     566     573
     673     674     673     678     673     681     674     675
     674     682     675     676     676     677     676     683
     677     678     677     684     678     685     679     675
     679     680     679     686     679      24     680     687
     680     688     360     367     360     368      18      19
      18      26       4       5       4      11      17      18
      17      22      17      25      22      29      39      35
      39      40      39      46      39     744      40      47
      40      48     434     435     434     442      52      53
      52      59     743     739     743     744     743     750
     743     648     241     242     241     246     241     249
     244     245     244     251     245     246     245     252
     246     253     257     258     257     262     257     265
     258     259     258     266     262     269     741     742
     741     748     308     309     308     315     309     310
     309     316     310     317     337     338     337     342
     337     345     338     339     338     346     339     340
     340     341     340     347     341     342     341     348
     342     349     744     751     744     752     520     527
     520     528     641     642     641     646     641     649
     642     643     642     650     643     644     644     645
     644     651     645     646     645     652     646     653
     647     643     647     648     647     654     647     520
     648     655     648     656     705     706     705     710
     705     713     706     707     706     714     709     710
     709     716     710     717     739     740     740     741
     740     747     519     515     519     520     519     526
     519     216     708     709     708     715      97      98
      97     102      97     105      98      99      98     106
      99     100     100     101     100     107     103      99
     103     104     103     110     103     776     104     111
     104     112     152     159     152     160     552     559
     552     560     179     180     180     181     180     187
     181     182     181     188     182     189     195     196
     196     197     196     203     199     195     199     200
     199     206     199     104     485     486     485     492
     209     210     209     214     209     217     210     211
     210     218     211     212     212     213     212     219
     213     214     213     220     214     221     215     211
     215     216     215     222     215     472     321     322
     321     326     321     329     757     758     757     764
     325     326     325     332     326     333     466     467
     466     474     343     339     343     344     343     350
     343     248     484     485     484     491     467     468
     471     467     471     472     471     478     471     152
     472     479     472     480     567     563     567     568
     567     574     567     360     568     575     568     576
     593     594     593     598     593     601     598     605
     248     255     248     256     769     770     769     774
     769     777     770     771     770     778     771     772
     772     773     772     779     773     774     773     780
     774     781     775     771     775     776     775     782
     775     568     776     783     776     784     324     325
     324     331     200     207     200     208     242     243
     242     250     243     244     247     243     247     248
     247     254     247     408     440     447     440     448
     259     260     260     261     260     267     261     262
     261     268     263     259     263     264     263     270
     263     440     264     271     264     272     369     370
     369     374     369     377     370     371     370     378
     371     372     372     373     372     379     375     371
     375     376     375     382     375     200     376     383
     376     384     401     402     401     406     401     409
     402     403     402     410     403     404     404     405
     404     411     405     406     405     412     406     413
     407     403     407     408     407     414     407     632
     408     415     408     416     439     435     439     440
     439     446     439     488     322     323     322     330
     742     749     738     739     738     746     514     515
     514     522     515     516     516     517     516     523
     517     518     517     524     518     525     626     627
     626     634     627     628     628     629     628     635
     631     627     631     632     631     638     631     728
     632     639     632     640     721     722     721     726
     721     729     722     723     722     730     723     724
     724     725     724     731     725     726     725     732
     726     733     727     723     727     728     727     734
     727     376     728     735     728     736     737     738
     737     742     737     745     625     626     625     630
     625     633
