PSF

       3 !TITLE
 REMARKS Polystyrene monomers
 REMARKS Generated with Polymatic
 REMARKS To be used with coordinates file in VMD

      32 !NATOM
       1 MOL  1    MOL  cp   1      0.000000       12.0112           0
       2 MOL  1    MOL  cp   1      0.000000       12.0112           0
       3 MOL  1    MOL  cp   1      0.000000       12.0112           0
       4 MOL  1    MOL  cp   1      0.000000       12.0112           0
       5 MOL  1    MOL  cp   1      0.000000       12.0112           0
       6 MOL  1    MOL  cp   1      0.000000       12.0112           0
       7 MOL  1    MOL  Lc1  2      0.000000       12.0112           0
       8 MOL  1    MOL  c2   3      0.000000       12.0112           0
       9 MOL  1    MOL  hc   4      0.000000        1.0080           0
      10 MOL  1    MOL  hc   4      0.000000        1.0080           0
      11 MOL  1    MOL  hc   4      0.000000        1.0080           0
      12 MOL  1    MOL  hc   4      0.000000        1.0080           0
      13 MOL  1    MOL  hc   4      0.000000        1.0080           0
      14 MOL  1    MOL  hc   4      0.000000        1.0080           0
      15 MOL  1    MOL  hc   4      0.000000        1.0080           0
      16 MOL  1    MOL  hc   4      0.000000        1.0080           0
      17 MOL  1    MOL  cp   1      0.000000       12.0112           0
      18 MOL  1    MOL  cp   1      0.000000       12.0112           0
      19 MOL  1    MOL  cp   1      0.000000       12.0112           0
      20 MOL  1    MOL  cp   1      0.000000       12.0112           0
      21 MOL  1    MOL  cp   1      0.000000       12.0112           0
      22 MOL  1    MOL  cp   1      0.000000       12.0112           0
      23 MOL  1    MOL  c1   5      0.000000       12.0112           0
      24 MOL  1    MOL  Lc2  6      0.000000       12.0112           0
      25 MOL  1    MOL  hc   4      0.000000        1.0080           0
      26 MOL  1    MOL  hc   4      0.000000        1.0080           0
      27 MOL  1    MOL  hc   4      0.000000        1.0080           0
      28 MOL  1    MOL  hc   4      0.000000        1.0080           0
      29 MOL  1    MOL  hc   4      0.000000        1.0080           0
      30 MOL  1    MOL  hc   4      0.000000        1.0080           0
      31 MOL  1    MOL  hc   4      0.000000        1.0080           0
      32 MOL  1    MOL  hc   4      0.000000        1.0080           0

      33 !NBOND: bonds
       1       2       3       4       4       5       5       6
       2       3       1       6       7       3       7       8
       1       9       2      10       4      11       5      12
       6      13       7      14       8      15       8      16
      17      18      19      20      20      21      21      22
      18      19      17      22      23      19      23      24
      17      25      18      26      20      27      21      28
      22      29      23      30      24      31      24      32
      23       8
