PSF

       3 !TITLE
 REMARKS Random packing of 'ps_pack.lmps', 150 x 'water.lmps'
 REMARKS Generated with Polymatic
 REMARKS To be used with coordinates file in VMD

    1170 !NATOM
       1 MOL  1    MOL  C    1      0.000000       12.0112           0
       2 MOL  1    MOL  C    1      0.000000       12.0112           0
       3 MOL  1    MOL  C    1      0.000000       12.0112           0
       4 MOL  1    MOL  C    1      0.000000       12.0112           0
       5 MOL  1    MOL  C    1      0.000000       12.0112           0
       6 MOL  1    MOL  C    1      0.000000       12.0112           0
       7 MOL  1    MOL  C    2      0.000000       12.0112           0
       8 MOL  1    MOL  C    3      0.000000       12.0112           0
       9 MOL  1    MOL  C    4      0.000000        1.0080           0
      10 MOL  1    MOL  C    4      0.000000        1.0080           0
      11 MOL  1    MOL  C    4      0.000000        1.0080           0
      12 MOL  1    MOL  C    4      0.000000        1.0080           0
      13 MOL  1    MOL  C    4      0.000000        1.0080           0
      14 MOL  1    MOL  C    4      0.000000        1.0080           0
      15 MOL  1    MOL  C    4      0.000000        1.0080           0
      16 MOL  1    MOL  C    4      0.000000        1.0080           0
      17 MOL  2    MOL  C    1      0.000000       12.0112           0
      18 MOL  2    MOL  C    1      0.000000       12.0112           0
      19 MOL  2    MOL  C    1      0.000000       12.0112           0
      20 MOL  2    MOL  C    1      0.000000       12.0112           0
      21 MOL  2    MOL  C    1      0.000000       12.0112           0
      22 MOL  2    MOL  C    1      0.000000       12.0112           0
      23 MOL  2    MOL  C    2      0.000000       12.0112           0
      24 MOL  2    MOL  C    3      0.000000       12.0112           0
      25 MOL  2    MOL  C    4      0.000000        1.0080           0
      26 MOL  2    MOL  C    4      0.000000        1.0080           0
      27 MOL  2    MOL  C    4      0.000000        1.0080           0
      28 MOL  2    MOL  C    4      0.000000        1.0080           0
      29 MOL  2    MOL  C    4      0.000000        1.0080           0
      30 MOL  2    MOL  C    4      0.000000        1.0080           0
      31 MOL  2    MOL  C    4      0.000000        1.0080           0
      32 MOL  2    MOL  C    4      0.000000        1.0080           0
      33 MOL  3    MOL  C    1      0.000000       12.0112           0
      34 MOL  3    MOL  C    1      0.000000       12.0112           0
      35 MOL  3    MOL  C    1      0.000000       12.0112           0
      36 MOL  3    MOL  C    1      0.000000       12.0112           0
      37 MOL  3    MOL  C    1      0.000000       12.0112           0
      38 MOL  3    MOL  C    1      0.000000       12.0112           0
      39 MOL  3    MOL  C    2      0.000000       12.0112           0
      40 MOL  3    MOL  C    3      0.000000       12.0112           0
      41 MOL  3    MOL  C    4      0.000000        1.0080           0
      42 MOL  3    MOL  C    4      0.000000        1.0080           0
      43 MOL  3    MOL  C    4      0.000000        1.0080           0
      44 MOL  3    MOL  C    4      0.000000        1.0080           0
      45 MOL  3    MOL  C    4      0.000000        1.0080           0
      46 MOL  3    MOL  C    4      0.000000        1.0080           0
      47 MOL  3    MOL  C    4      0.000000        1.0080           0
      48 MOL  3    MOL  C    4      0.000000        1.0080           0
      49 MOL  4    MOL  C    1      0.000000       12.0112           0
      50 MOL  4    MOL  C    1      0.000000       12.0112           0
      51 MOL  4    MOL  C    1      0.000000       12.0112           0
      52 MOL  4    MOL  C    1      0.000000       12.0112           0
      53 MOL  4    MOL  C    1      0.000000       12.0112           0
      54 MOL  4    MOL  C    1      0.000000       12.0112           0
      55 MOL  4    MOL  C    2      0.000000       12.0112           0
      56 MOL  4    MOL  C    3      0.000000       12.0112           0
      57 MOL  4    MOL  C    4      0.000000        1.0080           0
      58 MOL  4    MOL  C    4      0.000000        1.0080           0
      59 MOL  4    MOL  C    4      0.000000        1.0080           0
      60 MOL  4    MOL  C    4      0.000000        1.0080           0
      61 MOL  4    MOL  C    4      0.000000        1.0080           0
      62 MOL  4    MOL  C    4      0.000000        1.0080           0
      63 MOL  4    MOL  C    4      0.000000        1.0080           0
      64 MOL  4    MOL  C    4      0.000000        1.0080           0
      65 MOL  5    MOL  C    1      0.000000       12.0112           0
      66 MOL  5    MOL  C    1      0.000000       12.0112           0
      67 MOL  5    MOL  C    1      0.000000       12.0112           0
      68 MOL  5    MOL  C    1      0.000000       12.0112           0
      69 MOL  5    MOL  C    1      0.000000       12.0112           0
      70 MOL  5    MOL  C    1      0.000000       12.0112           0
      71 MOL  5    MOL  C    2      0.000000       12.0112           0
      72 MOL  5    MOL  C    3      0.000000       12.0112           0
      73 MOL  5    MOL  C    4      0.000000        1.0080           0
      74 MOL  5    MOL  C    4      0.000000        1.0080           0
      75 MOL  5    MOL  C    4      0.000000        1.0080           0
      76 MOL  5    MOL  C    4      0.000000        1.0080           0
      77 MOL  5    MOL  C    4      0.000000        1.0080           0
      78 MOL  5    MOL  C    4      0.000000        1.0080           0
      79 MOL  5    MOL  C    4      0.000000        1.0080           0
      80 MOL  5    MOL  C    4      0.000000        1.0080           0
      81 MOL  6    MOL  C    1      0.000000       12.0112           0
      82 MOL  6    MOL  C    1      0.000000       12.0112           0
      83 MOL  6    MOL  C    1      0.000000       12.0112           0
      84 MOL  6    MOL  C    1      0.000000       12.0112           0
      85 MOL  6    MOL  C    1      0.000000       12.0112           0
      86 MOL  6    MOL  C    1      0.000000       12.0112           0
      87 MOL  6    MOL  C    2      0.000000       12.0112           0
      88 MOL  6    MOL  C    3      0.000000       12.0112           0
      89 MOL  6    MOL  C    4      0.000000        1.0080           0
      90 MOL  6    MOL  C    4      0.000000        1.0080           0
      91 MOL  6    MOL  C    4      0.000000        1.0080           0
      92 MOL  6    MOL  C    4      0.000000        1.0080           0
      93 MOL  6    MOL  C    4      0.000000        1.0080           0
      94 MOL  6    MOL  C    4      0.000000        1.0080           0
      95 MOL  6    MOL  C    4      0.000000        1.0080           0
      96 MOL  6    MOL  C    4      0.000000        1.0080           0
      97 MOL  7    MOL  C    1      0.000000       12.0112           0
      98 MOL  7    MOL  C    1      0.000000       12.0112           0
      99 MOL  7    MOL  C    1      0.000000       12.0112           0
     100 MOL  7    MOL  C    1      0.000000       12.0112           0
     101 MOL  7    MOL  C    1      0.000000       12.0112           0
     102 MOL  7    MOL  C    1      0.000000       12.0112           0
     103 MOL  7    MOL  C    2      0.000000       12.0112           0
     104 MOL  7    MOL  C    3      0.000000       12.0112           0
     105 MOL  7    MOL  C    4      0.000000        1.0080           0
     106 MOL  7    MOL  C    4      0.000000        1.0080           0
     107 MOL  7    MOL  C    4      0.000000        1.0080           0
     108 MOL  7    MOL  C    4      0.000000        1.0080           0
     109 MOL  7    MOL  C    4      0.000000        1.0080           0
     110 MOL  7    MOL  C    4      0.000000        1.0080           0
     111 MOL  7    MOL  C    4      0.000000        1.0080           0
     112 MOL  7    MOL  C    4      0.000000        1.0080           0
     113 MOL  8    MOL  C    1      0.000000       12.0112           0
     114 MOL  8    MOL  C    1      0.000000       12.0112           0
     115 MOL  8    MOL  C    1      0.000000       12.0112           0
     116 MOL  8    MOL  C    1      0.000000       12.0112           0
     117 MOL  8    MOL  C    1      0.000000       12.0112           0
     118 MOL  8    MOL  C    1      0.000000       12.0112           0
     119 MOL  8    MOL  C    2      0.000000       12.0112           0
     120 MOL  8    MOL  C    3      0.000000       12.0112           0
     121 MOL  8    MOL  C    4      0.000000        1.0080           0
     122 MOL  8    MOL  C    4      0.000000        1.0080           0
     123 MOL  8    MOL  C    4      0.000000        1.0080           0
     124 MOL  8    MOL  C    4      0.000000        1.0080           0
     125 MOL  8    MOL  C    4      0.000000        1.0080           0
     126 MOL  8    MOL  C    4      0.000000        1.0080           0
     127 MOL  8    MOL  C    4      0.000000        1.0080           0
     128 MOL  8    MOL  C    4      0.000000        1.0080           0
     129 MOL  9    MOL  C    1      0.000000       12.0112           0
     130 MOL  9    MOL  C    1      0.000000       12.0112           0
     131 MOL  9    MOL  C    1      0.000000       12.0112           0
     132 MOL  9    MOL  C    1      0.000000       12.0112           0
     133 MOL  9    MOL  C    1      0.000000       12.0112           0
     134 MOL  9    MOL  C    1      0.000000       12.0112           0
     135 MOL  9    MOL  C    2      0.000000       12.0112           0
     136 MOL  9    MOL  C    3      0.000000       12.0112           0
     137 MOL  9    MOL  C    4      0.000000        1.0080           0
     138 MOL  9    MOL  C    4      0.000000        1.0080           0
     139 MOL  9    MOL  C    4      0.000000        1.0080           0
     140 MOL  9    MOL  C    4      0.000000        1.0080           0
     141 MOL  9    MOL  C    4      0.000000        1.0080           0
     142 MOL  9    MOL  C    4      0.000000        1.0080           0
     143 MOL  9    MOL  C    4      0.000000        1.0080           0
     144 MOL  9    MOL  C    4      0.000000        1.0080           0
     145 MOL  10   MOL  C    1      0.000000       12.0112           0
     146 MOL  10   MOL  C    1      0.000000       12.0112           0
     147 MOL  10   MOL  C    1      0.000000       12.0112           0
     148 MOL  10   MOL  C    1      0.000000       12.0112           0
     149 MOL  10   MOL  C    1      0.000000       12.0112           0
     150 MOL  10   MOL  C    1      0.000000       12.0112           0
     151 MOL  10   MOL  C    2      0.000000       12.0112           0
     152 MOL  10   MOL  C    3      0.000000       12.0112           0
     153 MOL  10   MOL  C    4      0.000000        1.0080           0
     154 MOL  10   MOL  C    4      0.000000        1.0080           0
     155 MOL  10   MOL  C    4      0.000000        1.0080           0
     156 MOL  10   MOL  C    4      0.000000        1.0080           0
     157 MOL  10   MOL  C    4      0.000000        1.0080           0
     158 MOL  10   MOL  C    4      0.000000        1.0080           0
     159 MOL  10   MOL  C    4      0.000000        1.0080           0
     160 MOL  10   MOL  C    4      0.000000        1.0080           0
     161 MOL  11   MOL  C    1      0.000000       12.0112           0
     162 MOL  11   MOL  C    1      0.000000       12.0112           0
     163 MOL  11   MOL  C    1      0.000000       12.0112           0
     164 MOL  11   MOL  C    1      0.000000       12.0112           0
     165 MOL  11   MOL  C    1      0.000000       12.0112           0
     166 MOL  11   MOL  C    1      0.000000       12.0112           0
     167 MOL  11   MOL  C    2      0.000000       12.0112           0
     168 MOL  11   MOL  C    3      0.000000       12.0112           0
     169 MOL  11   MOL  C    4      0.000000        1.0080           0
     170 MOL  11   MOL  C    4      0.000000        1.0080           0
     171 MOL  11   MOL  C    4      0.000000        1.0080           0
     172 MOL  11   MOL  C    4      0.000000        1.0080           0
     173 MOL  11   MOL  C    4      0.000000        1.0080           0
     174 MOL  11   MOL  C    4      0.000000        1.0080           0
     175 MOL  11   MOL  C    4      0.000000        1.0080           0
     176 MOL  11   MOL  C    4      0.000000        1.0080           0
     177 MOL  12   MOL  C    1      0.000000       12.0112           0
     178 MOL  12   MOL  C    1      0.000000       12.0112           0
     179 MOL  12   MOL  C    1      0.000000       12.0112           0
     180 MOL  12   MOL  C    1      0.000000       12.0112           0
     181 MOL  12   MOL  C    1      0.000000       12.0112           0
     182 MOL  12   MOL  C    1      0.000000       12.0112           0
     183 MOL  12   MOL  C    2      0.000000       12.0112           0
     184 MOL  12   MOL  C    3      0.000000       12.0112           0
     185 MOL  12   MOL  C    4      0.000000        1.0080           0
     186 MOL  12   MOL  C    4      0.000000        1.0080           0
     187 MOL  12   MOL  C    4      0.000000        1.0080           0
     188 MOL  12   MOL  C    4      0.000000        1.0080           0
     189 MOL  12   MOL  C    4      0.000000        1.0080           0
     190 MOL  12   MOL  C    4      0.000000        1.0080           0
     191 MOL  12   MOL  C    4      0.000000        1.0080           0
     192 MOL  12   MOL  C    4      0.000000        1.0080           0
     193 MOL  13   MOL  C    1      0.000000       12.0112           0
     194 MOL  13   MOL  C    1      0.000000       12.0112           0
     195 MOL  13   MOL  C    1      0.000000       12.0112           0
     196 MOL  13   MOL  C    1      0.000000       12.0112           0
     197 MOL  13   MOL  C    1      0.000000       12.0112           0
     198 MOL  13   MOL  C    1      0.000000       12.0112           0
     199 MOL  13   MOL  C    2      0.000000       12.0112           0
     200 MOL  13   MOL  C    3      0.000000       12.0112           0
     201 MOL  13   MOL  C    4      0.000000        1.0080           0
     202 MOL  13   MOL  C    4      0.000000        1.0080           0
     203 MOL  13   MOL  C    4      0.000000        1.0080           0
     204 MOL  13   MOL  C    4      0.000000        1.0080           0
     205 MOL  13   MOL  C    4      0.000000        1.0080           0
     206 MOL  13   MOL  C    4      0.000000        1.0080           0
     207 MOL  13   MOL  C    4      0.000000        1.0080           0
     208 MOL  13   MOL  C    4      0.000000        1.0080           0
     209 MOL  14   MOL  C    1      0.000000       12.0112           0
     210 MOL  14   MOL  C    1      0.000000       12.0112           0
     211 MOL  14   MOL  C    1      0.000000       12.0112           0
     212 MOL  14   MOL  C    1      0.000000       12.0112           0
     213 MOL  14   MOL  C    1      0.000000       12.0112           0
     214 MOL  14   MOL  C    1      0.000000       12.0112           0
     215 MOL  14   MOL  C    2      0.000000       12.0112           0
     216 MOL  14   MOL  C    3      0.000000       12.0112           0
     217 MOL  14   MOL  C    4      0.000000        1.0080           0
     218 MOL  14   MOL  C    4      0.000000        1.0080           0
     219 MOL  14   MOL  C    4      0.000000        1.0080           0
     220 MOL  14   MOL  C    4      0.000000        1.0080           0
     221 MOL  14   MOL  C    4      0.000000        1.0080           0
     222 MOL  14   MOL  C    4      0.000000        1.0080           0
     223 MOL  14   MOL  C    4      0.000000        1.0080           0
     224 MOL  14   MOL  C    4      0.000000        1.0080           0
     225 MOL  15   MOL  C    1      0.000000       12.0112           0
     226 MOL  15   MOL  C    1      0.000000       12.0112           0
     227 MOL  15   MOL  C    1      0.000000       12.0112           0
     228 MOL  15   MOL  C    1      0.000000       12.0112           0
     229 MOL  15   MOL  C    1      0.000000       12.0112           0
     230 MOL  15   MOL  C    1      0.000000       12.0112           0
     231 MOL  15   MOL  C    2      0.000000       12.0112           0
     232 MOL  15   MOL  C    3      0.000000       12.0112           0
     233 MOL  15   MOL  C    4      0.000000        1.0080           0
     234 MOL  15   MOL  C    4      0.000000        1.0080           0
     235 MOL  15   MOL  C    4      0.000000        1.0080           0
     236 MOL  15   MOL  C    4      0.000000        1.0080           0
     237 MOL  15   MOL  C    4      0.000000        1.0080           0
     238 MOL  15   MOL  C    4      0.000000        1.0080           0
     239 MOL  15   MOL  C    4      0.000000        1.0080           0
     240 MOL  15   MOL  C    4      0.000000        1.0080           0
     241 MOL  16   MOL  C    1      0.000000       12.0112           0
     242 MOL  16   MOL  C    1      0.000000       12.0112           0
     243 MOL  16   MOL  C    1      0.000000       12.0112           0
     244 MOL  16   MOL  C    1      0.000000       12.0112           0
     245 MOL  16   MOL  C    1      0.000000       12.0112           0
     246 MOL  16   MOL  C    1      0.000000       12.0112           0
     247 MOL  16   MOL  C    2      0.000000       12.0112           0
     248 MOL  16   MOL  C    3      0.000000       12.0112           0
     249 MOL  16   MOL  C    4      0.000000        1.0080           0
     250 MOL  16   MOL  C    4      0.000000        1.0080           0
     251 MOL  16   MOL  C    4      0.000000        1.0080           0
     252 MOL  16   MOL  C    4      0.000000        1.0080           0
     253 MOL  16   MOL  C    4      0.000000        1.0080           0
     254 MOL  16   MOL  C    4      0.000000        1.0080           0
     255 MOL  16   MOL  C    4      0.000000        1.0080           0
     256 MOL  16   MOL  C    4      0.000000        1.0080           0
     257 MOL  17   MOL  C    1      0.000000       12.0112           0
     258 MOL  17   MOL  C    1      0.000000       12.0112           0
     259 MOL  17   MOL  C    1      0.000000       12.0112           0
     260 MOL  17   MOL  C    1      0.000000       12.0112           0
     261 MOL  17   MOL  C    1      0.000000       12.0112           0
     262 MOL  17   MOL  C    1      0.000000       12.0112           0
     263 MOL  17   MOL  C    2      0.000000       12.0112           0
     264 MOL  17   MOL  C    3      0.000000       12.0112           0
     265 MOL  17   MOL  C    4      0.000000        1.0080           0
     266 MOL  17   MOL  C    4      0.000000        1.0080           0
     267 MOL  17   MOL  C    4      0.000000        1.0080           0
     268 MOL  17   MOL  C    4      0.000000        1.0080           0
     269 MOL  17   MOL  C    4      0.000000        1.0080           0
     270 MOL  17   MOL  C    4      0.000000        1.0080           0
     271 MOL  17   MOL  C    4      0.000000        1.0080           0
     272 MOL  17   MOL  C    4      0.000000        1.0080           0
     273 MOL  18   MOL  C    1      0.000000       12.0112           0
     274 MOL  18   MOL  C    1      0.000000       12.0112           0
     275 MOL  18   MOL  C    1      0.000000       12.0112           0
     276 MOL  18   MOL  C    1      0.000000       12.0112           0
     277 MOL  18   MOL  C    1      0.000000       12.0112           0
     278 MOL  18   MOL  C    1      0.000000       12.0112           0
     279 MOL  18   MOL  C    2      0.000000       12.0112           0
     280 MOL  18   MOL  C    3      0.000000       12.0112           0
     281 MOL  18   MOL  C    4      0.000000        1.0080           0
     282 MOL  18   MOL  C    4      0.000000        1.0080           0
     283 MOL  18   MOL  C    4      0.000000        1.0080           0
     284 MOL  18   MOL  C    4      0.000000        1.0080           0
     285 MOL  18   MOL  C    4      0.000000        1.0080           0
     286 MOL  18   MOL  C    4      0.000000        1.0080           0
     287 MOL  18   MOL  C    4      0.000000        1.0080           0
     288 MOL  18   MOL  C    4      0.000000        1.0080           0
     289 MOL  19   MOL  C    1      0.000000       12.0112           0
     290 MOL  19   MOL  C    1      0.000000       12.0112           0
     291 MOL  19   MOL  C    1      0.000000       12.0112           0
     292 MOL  19   MOL  C    1      0.000000       12.0112           0
     293 MOL  19   MOL  C    1      0.000000       12.0112           0
     294 MOL  19   MOL  C    1      0.000000       12.0112           0
     295 MOL  19   MOL  C    2      0.000000       12.0112           0
     296 MOL  19   MOL  C    3      0.000000       12.0112           0
     297 MOL  19   MOL  C    4      0.000000        1.0080           0
     298 MOL  19   MOL  C    4      0.000000        1.0080           0
     299 MOL  19   MOL  C    4      0.000000        1.0080           0
     300 MOL  19   MOL  C    4      0.000000        1.0080           0
     301 MOL  19   MOL  C    4      0.000000        1.0080           0
     302 MOL  19   MOL  C    4      0.000000        1.0080           0
     303 MOL  19   MOL  C    4      0.000000        1.0080           0
     304 MOL  19   MOL  C    4      0.000000        1.0080           0
     305 MOL  20   MOL  C    1      0.000000       12.0112           0
     306 MOL  20   MOL  C    1      0.000000       12.0112           0
     307 MOL  20   MOL  C    1      0.000000       12.0112           0
     308 MOL  20   MOL  C    1      0.000000       12.0112           0
     309 MOL  20   MOL  C    1      0.000000       12.0112           0
     310 MOL  20   MOL  C    1      0.000000       12.0112           0
     311 MOL  20   MOL  C    2      0.000000       12.0112           0
     312 MOL  20   MOL  C    3      0.000000       12.0112           0
     313 MOL  20   MOL  C    4      0.000000        1.0080           0
     314 MOL  20   MOL  C    4      0.000000        1.0080           0
     315 MOL  20   MOL  C    4      0.000000        1.0080           0
     316 MOL  20   MOL  C    4      0.000000        1.0080           0
     317 MOL  20   MOL  C    4      0.000000        1.0080           0
     318 MOL  20   MOL  C    4      0.000000        1.0080           0
     319 MOL  20   MOL  C    4      0.000000        1.0080           0
     320 MOL  20   MOL  C    4      0.000000        1.0080           0
     321 MOL  21   MOL  C    1      0.000000       12.0112           0
     322 MOL  21   MOL  C    1      0.000000       12.0112           0
     323 MOL  21   MOL  C    1      0.000000       12.0112           0
     324 MOL  21   MOL  C    1      0.000000       12.0112           0
     325 MOL  21   MOL  C    1      0.000000       12.0112           0
     326 MOL  21   MOL  C    1      0.000000       12.0112           0
     327 MOL  21   MOL  C    2      0.000000       12.0112           0
     328 MOL  21   MOL  C    3      0.000000       12.0112           0
     329 MOL  21   MOL  C    4      0.000000        1.0080           0
     330 MOL  21   MOL  C    4      0.000000        1.0080           0
     331 MOL  21   MOL  C    4      0.000000        1.0080           0
     332 MOL  21   MOL  C    4      0.000000        1.0080           0
     333 MOL  21   MOL  C    4      0.000000        1.0080           0
     334 MOL  21   MOL  C    4      0.000000        1.0080           0
     335 MOL  21   MOL  C    4      0.000000        1.0080           0
     336 MOL  21   MOL  C    4      0.000000        1.0080           0
     337 MOL  22   MOL  C    1      0.000000       12.0112           0
     338 MOL  22   MOL  C    1      0.000000       12.0112           0
     339 MOL  22   MOL  C    1      0.000000       12.0112           0
     340 MOL  22   MOL  C    1      0.000000       12.0112           0
     341 MOL  22   MOL  C    1      0.000000       12.0112           0
     342 MOL  22   MOL  C    1      0.000000       12.0112           0
     343 MOL  22   MOL  C    2      0.000000       12.0112           0
     344 MOL  22   MOL  C    3      0.000000       12.0112           0
     345 MOL  22   MOL  C    4      0.000000        1.0080           0
     346 MOL  22   MOL  C    4      0.000000        1.0080           0
     347 MOL  22   MOL  C    4      0.000000        1.0080           0
     348 MOL  22   MOL  C    4      0.000000        1.0080           0
     349 MOL  22   MOL  C    4      0.000000        1.0080           0
     350 MOL  22   MOL  C    4      0.000000        1.0080           0
     351 MOL  22   MOL  C    4      0.000000        1.0080           0
     352 MOL  22   MOL  C    4      0.000000        1.0080           0
     353 MOL  23   MOL  C    1      0.000000       12.0112           0
     354 MOL  23   MOL  C    1      0.000000       12.0112           0
     355 MOL  23   MOL  C    1      0.000000       12.0112           0
     356 MOL  23   MOL  C    1      0.000000       12.0112           0
     357 MOL  23   MOL  C    1      0.000000       12.0112           0
     358 MOL  23   MOL  C    1      0.000000       12.0112           0
     359 MOL  23   MOL  C    2      0.000000       12.0112           0
     360 MOL  23   MOL  C    3      0.000000       12.0112           0
     361 MOL  23   MOL  C    4      0.000000        1.0080           0
     362 MOL  23   MOL  C    4      0.000000        1.0080           0
     363 MOL  23   MOL  C    4      0.000000        1.0080           0
     364 MOL  23   MOL  C    4      0.000000        1.0080           0
     365 MOL  23   MOL  C    4      0.000000        1.0080           0
     366 MOL  23   MOL  C    4      0.000000        1.0080           0
     367 MOL  23   MOL  C    4      0.000000        1.0080           0
     368 MOL  23   MOL  C    4      0.000000        1.0080           0
     369 MOL  24   MOL  C    1      0.000000       12.0112           0
     370 MOL  24   MOL  C    1      0.000000       12.0112           0
     371 MOL  24   MOL  C    1      0.000000       12.0112           0
     372 MOL  24   MOL  C    1      0.000000       12.0112           0
     373 MOL  24   MOL  C    1      0.000000       12.0112           0
     374 MOL  24   MOL  C    1      0.000000       12.0112           0
     375 MOL  24   MOL  C    2      0.000000       12.0112           0
     376 MOL  24   MOL  C    3      0.000000       12.0112           0
     377 MOL  24   MOL  C    4      0.000000        1.0080           0
     378 MOL  24   MOL  C    4      0.000000        1.0080           0
     379 MOL  24   MOL  C    4      0.000000        1.0080           0
     380 MOL  24   MOL  C    4      0.000000        1.0080           0
     381 MOL  24   MOL  C    4      0.000000        1.0080           0
     382 MOL  24   MOL  C    4      0.000000        1.0080           0
     383 MOL  24   MOL  C    4      0.000000        1.0080           0
     384 MOL  24   MOL  C    4      0.000000        1.0080           0
     385 MOL  25   MOL  C    1      0.000000       12.0112           0
     386 MOL  25   MOL  C    1      0.000000       12.0112           0
     387 MOL  25   MOL  C    1      0.000000       12.0112           0
     388 MOL  25   MOL  C    1      0.000000       12.0112           0
     389 MOL  25   MOL  C    1      0.000000       12.0112           0
     390 MOL  25   MOL  C    1      0.000000       12.0112           0
     391 MOL  25   MOL  C    2      0.000000       12.0112           0
     392 MOL  25   MOL  C    3      0.000000       12.0112           0
     393 MOL  25   MOL  C    4      0.000000        1.0080           0
     394 MOL  25   MOL  C    4      0.000000        1.0080           0
     395 MOL  25   MOL  C    4      0.000000        1.0080           0
     396 MOL  25   MOL  C    4      0.000000        1.0080           0
     397 MOL  25   MOL  C    4      0.000000        1.0080           0
     398 MOL  25   MOL  C    4      0.000000        1.0080           0
     399 MOL  25   MOL  C    4      0.000000        1.0080           0
     400 MOL  25   MOL  C    4      0.000000        1.0080           0
     401 MOL  26   MOL  C    1      0.000000       12.0112           0
     402 MOL  26   MOL  C    1      0.000000       12.0112           0
     403 MOL  26   MOL  C    1      0.000000       12.0112           0
     404 MOL  26   MOL  C    1      0.000000       12.0112           0
     405 MOL  26   MOL  C    1      0.000000       12.0112           0
     406 MOL  26   MOL  C    1      0.000000       12.0112           0
     407 MOL  26   MOL  C    2      0.000000       12.0112           0
     408 MOL  26   MOL  C    3      0.000000       12.0112           0
     409 MOL  26   MOL  C    4      0.000000        1.0080           0
     410 MOL  26   MOL  C    4      0.000000        1.0080           0
     411 MOL  26   MOL  C    4      0.000000        1.0080           0
     412 MOL  26   MOL  C    4      0.000000        1.0080           0
     413 MOL  26   MOL  C    4      0.000000        1.0080           0
     414 MOL  26   MOL  C    4      0.000000        1.0080           0
     415 MOL  26   MOL  C    4      0.000000        1.0080           0
     416 MOL  26   MOL  C    4      0.000000        1.0080           0
     417 MOL  27   MOL  C    1      0.000000       12.0112           0
     418 MOL  27   MOL  C    1      0.000000       12.0112           0
     419 MOL  27   MOL  C    1      0.000000       12.0112           0
     420 MOL  27   MOL  C    1      0.000000       12.0112           0
     421 MOL  27   MOL  C    1      0.000000       12.0112           0
     422 MOL  27   MOL  C    1      0.000000       12.0112           0
     423 MOL  27   MOL  C    2      0.000000       12.0112           0
     424 MOL  27   MOL  C    3      0.000000       12.0112           0
     425 MOL  27   MOL  C    4      0.000000        1.0080           0
     426 MOL  27   MOL  C    4      0.000000        1.0080           0
     427 MOL  27   MOL  C    4      0.000000        1.0080           0
     428 MOL  27   MOL  C    4      0.000000        1.0080           0
     429 MOL  27   MOL  C    4      0.000000        1.0080           0
     430 MOL  27   MOL  C    4      0.000000        1.0080           0
     431 MOL  27   MOL  C    4      0.000000        1.0080           0
     432 MOL  27   MOL  C    4      0.000000        1.0080           0
     433 MOL  28   MOL  C    1      0.000000       12.0112           0
     434 MOL  28   MOL  C    1      0.000000       12.0112           0
     435 MOL  28   MOL  C    1      0.000000       12.0112           0
     436 MOL  28   MOL  C    1      0.000000       12.0112           0
     437 MOL  28   MOL  C    1      0.000000       12.0112           0
     438 MOL  28   MOL  C    1      0.000000       12.0112           0
     439 MOL  28   MOL  C    2      0.000000       12.0112           0
     440 MOL  28   MOL  C    3      0.000000       12.0112           0
     441 MOL  28   MOL  C    4      0.000000        1.0080           0
     442 MOL  28   MOL  C    4      0.000000        1.0080           0
     443 MOL  28   MOL  C    4      0.000000        1.0080           0
     444 MOL  28   MOL  C    4      0.000000        1.0080           0
     445 MOL  28   MOL  C    4      0.000000        1.0080           0
     446 MOL  28   MOL  C    4      0.000000        1.0080           0
     447 MOL  28   MOL  C    4      0.000000        1.0080           0
     448 MOL  28   MOL  C    4      0.000000        1.0080           0
     449 MOL  29   MOL  C    1      0.000000       12.0112           0
     450 MOL  29   MOL  C    1      0.000000       12.0112           0
     451 MOL  29   MOL  C    1      0.000000       12.0112           0
     452 MOL  29   MOL  C    1      0.000000       12.0112           0
     453 MOL  29   MOL  C    1      0.000000       12.0112           0
     454 MOL  29   MOL  C    1      0.000000       12.0112           0
     455 MOL  29   MOL  C    2      0.000000       12.0112           0
     456 MOL  29   MOL  C    3      0.000000       12.0112           0
     457 MOL  29   MOL  C    4      0.000000        1.0080           0
     458 MOL  29   MOL  C    4      0.000000        1.0080           0
     459 MOL  29   MOL  C    4      0.000000        1.0080           0
     460 MOL  29   MOL  C    4      0.000000        1.0080           0
     461 MOL  29   MOL  C    4      0.000000        1.0080           0
     462 MOL  29   MOL  C    4      0.000000        1.0080           0
     463 MOL  29   MOL  C    4      0.000000        1.0080           0
     464 MOL  29   MOL  C    4      0.000000        1.0080           0
     465 MOL  30   MOL  C    1      0.000000       12.0112           0
     466 MOL  30   MOL  C    1      0.000000       12.0112           0
     467 MOL  30   MOL  C    1      0.000000       12.0112           0
     468 MOL  30   MOL  C    1      0.000000       12.0112           0
     469 MOL  30   MOL  C    1      0.000000       12.0112           0
     470 MOL  30   MOL  C    1      0.000000       12.0112           0
     471 MOL  30   MOL  C    2      0.000000       12.0112           0
     472 MOL  30   MOL  C    3      0.000000       12.0112           0
     473 MOL  30   MOL  C    4      0.000000        1.0080           0
     474 MOL  30   MOL  C    4      0.000000        1.0080           0
     475 MOL  30   MOL  C    4      0.000000        1.0080           0
     476 MOL  30   MOL  C    4      0.000000        1.0080           0
     477 MOL  30   MOL  C    4      0.000000        1.0080           0
     478 MOL  30   MOL  C    4      0.000000        1.0080           0
     479 MOL  30   MOL  C    4      0.000000        1.0080           0
     480 MOL  30   MOL  C    4      0.000000        1.0080           0
     481 MOL  31   MOL  C    1      0.000000       12.0112           0
     482 MOL  31   MOL  C    1      0.000000       12.0112           0
     483 MOL  31   MOL  C    1      0.000000       12.0112           0
     484 MOL  31   MOL  C    1      0.000000       12.0112           0
     485 MOL  31   MOL  C    1      0.000000       12.0112           0
     486 MOL  31   MOL  C    1      0.000000       12.0112           0
     487 MOL  31   MOL  C    2      0.000000       12.0112           0
     488 MOL  31   MOL  C    3      0.000000       12.0112           0
     489 MOL  31   MOL  C    4      0.000000        1.0080           0
     490 MOL  31   MOL  C    4      0.000000        1.0080           0
     491 MOL  31   MOL  C    4      0.000000        1.0080           0
     492 MOL  31   MOL  C    4      0.000000        1.0080           0
     493 MOL  31   MOL  C    4      0.000000        1.0080           0
     494 MOL  31   MOL  C    4      0.000000        1.0080           0
     495 MOL  31   MOL  C    4      0.000000        1.0080           0
     496 MOL  31   MOL  C    4      0.000000        1.0080           0
     497 MOL  32   MOL  C    1      0.000000       12.0112           0
     498 MOL  32   MOL  C    1      0.000000       12.0112           0
     499 MOL  32   MOL  C    1      0.000000       12.0112           0
     500 MOL  32   MOL  C    1      0.000000       12.0112           0
     501 MOL  32   MOL  C    1      0.000000       12.0112           0
     502 MOL  32   MOL  C    1      0.000000       12.0112           0
     503 MOL  32   MOL  C    2      0.000000       12.0112           0
     504 MOL  32   MOL  C    3      0.000000       12.0112           0
     505 MOL  32   MOL  C    4      0.000000        1.0080           0
     506 MOL  32   MOL  C    4      0.000000        1.0080           0
     507 MOL  32   MOL  C    4      0.000000        1.0080           0
     508 MOL  32   MOL  C    4      0.000000        1.0080           0
     509 MOL  32   MOL  C    4      0.000000        1.0080           0
     510 MOL  32   MOL  C    4      0.000000        1.0080           0
     511 MOL  32   MOL  C    4      0.000000        1.0080           0
     512 MOL  32   MOL  C    4      0.000000        1.0080           0
     513 MOL  33   MOL  C    1      0.000000       12.0112           0
     514 MOL  33   MOL  C    1      0.000000       12.0112           0
     515 MOL  33   MOL  C    1      0.000000       12.0112           0
     516 MOL  33   MOL  C    1      0.000000       12.0112           0
     517 MOL  33   MOL  C    1      0.000000       12.0112           0
     518 MOL  33   MOL  C    1      0.000000       12.0112           0
     519 MOL  33   MOL  C    2      0.000000       12.0112           0
     520 MOL  33   MOL  C    3      0.000000       12.0112           0
     521 MOL  33   MOL  C    4      0.000000        1.0080           0
     522 MOL  33   MOL  C    4      0.000000        1.0080           0
     523 MOL  33   MOL  C    4      0.000000        1.0080           0
     524 MOL  33   MOL  C    4      0.000000        1.0080           0
     525 MOL  33   MOL  C    4      0.000000        1.0080           0
     526 MOL  33   MOL  C    4      0.000000        1.0080           0
     527 MOL  33   MOL  C    4      0.000000        1.0080           0
     528 MOL  33   MOL  C    4      0.000000        1.0080           0
     529 MOL  34   MOL  C    1      0.000000       12.0112           0
     530 MOL  34   MOL  C    1      0.000000       12.0112           0
     531 MOL  34   MOL  C    1      0.000000       12.0112           0
     532 MOL  34   MOL  C    1      0.000000       12.0112           0
     533 MOL  34   MOL  C    1      0.000000       12.0112           0
     534 MOL  34   MOL  C    1      0.000000       12.0112           0
     535 MOL  34   MOL  C    2      0.000000       12.0112           0
     536 MOL  34   MOL  C    3      0.000000       12.0112           0
     537 MOL  34   MOL  C    4      0.000000        1.0080           0
     538 MOL  34   MOL  C    4      0.000000        1.0080           0
     539 MOL  34   MOL  C    4      0.000000        1.0080           0
     540 MOL  34   MOL  C    4      0.000000        1.0080           0
     541 MOL  34   MOL  C    4      0.000000        1.0080           0
     542 MOL  34   MOL  C    4      0.000000        1.0080           0
     543 MOL  34   MOL  C    4      0.000000        1.0080           0
     544 MOL  34   MOL  C    4      0.000000        1.0080           0
     545 MOL  35   MOL  C    1      0.000000       12.0112           0
     546 MOL  35   MOL  C    1      0.000000       12.0112           0
     547 MOL  35   MOL  C    1      0.000000       12.0112           0
     548 MOL  35   MOL  C    1      0.000000       12.0112           0
     549 MOL  35   MOL  C    1      0.000000       12.0112           0
     550 MOL  35   MOL  C    1      0.000000       12.0112           0
     551 MOL  35   MOL  C    2      0.000000       12.0112           0
     552 MOL  35   MOL  C    3      0.000000       12.0112           0
     553 MOL  35   MOL  C    4      0.000000        1.0080           0
     554 MOL  35   MOL  C    4      0.000000        1.0080           0
     555 MOL  35   MOL  C    4      0.000000        1.0080           0
     556 MOL  35   MOL  C    4      0.000000        1.0080           0
     557 MOL  35   MOL  C    4      0.000000        1.0080           0
     558 MOL  35   MOL  C    4      0.000000        1.0080           0
     559 MOL  35   MOL  C    4      0.000000        1.0080           0
     560 MOL  35   MOL  C    4      0.000000        1.0080           0
     561 MOL  36   MOL  C    1      0.000000       12.0112           0
     562 MOL  36   MOL  C    1      0.000000       12.0112           0
     563 MOL  36   MOL  C    1      0.000000       12.0112           0
     564 MOL  36   MOL  C    1      0.000000       12.0112           0
     565 MOL  36   MOL  C    1      0.000000       12.0112           0
     566 MOL  36   MOL  C    1      0.000000       12.0112           0
     567 MOL  36   MOL  C    2      0.000000       12.0112           0
     568 MOL  36   MOL  C    3      0.000000       12.0112           0
     569 MOL  36   MOL  C    4      0.000000        1.0080           0
     570 MOL  36   MOL  C    4      0.000000        1.0080           0
     571 MOL  36   MOL  C    4      0.000000        1.0080           0
     572 MOL  36   MOL  C    4      0.000000        1.0080           0
     573 MOL  36   MOL  C    4      0.000000        1.0080           0
     574 MOL  36   MOL  C    4      0.000000        1.0080           0
     575 MOL  36   MOL  C    4      0.000000        1.0080           0
     576 MOL  36   MOL  C    4      0.000000        1.0080           0
     577 MOL  37   MOL  C    1      0.000000       12.0112           0
     578 MOL  37   MOL  C    1      0.000000       12.0112           0
     579 MOL  37   MOL  C    1      0.000000       12.0112           0
     580 MOL  37   MOL  C    1      0.000000       12.0112           0
     581 MOL  37   MOL  C    1      0.000000       12.0112           0
     582 MOL  37   MOL  C    1      0.000000       12.0112           0
     583 MOL  37   MOL  C    2      0.000000       12.0112           0
     584 MOL  37   MOL  C    3      0.000000       12.0112           0
     585 MOL  37   MOL  C    4      0.000000        1.0080           0
     586 MOL  37   MOL  C    4      0.000000        1.0080           0
     587 MOL  37   MOL  C    4      0.000000        1.0080           0
     588 MOL  37   MOL  C    4      0.000000        1.0080           0
     589 MOL  37   MOL  C    4      0.000000        1.0080           0
     590 MOL  37   MOL  C    4      0.000000        1.0080           0
     591 MOL  37   MOL  C    4      0.000000        1.0080           0
     592 MOL  37   MOL  C    4      0.000000        1.0080           0
     593 MOL  38   MOL  C    1      0.000000       12.0112           0
     594 MOL  38   MOL  C    1      0.000000       12.0112           0
     595 MOL  38   MOL  C    1      0.000000       12.0112           0
     596 MOL  38   MOL  C    1      0.000000       12.0112           0
     597 MOL  38   MOL  C    1      0.000000       12.0112           0
     598 MOL  38   MOL  C    1      0.000000       12.0112           0
     599 MOL  38   MOL  C    2      0.000000       12.0112           0
     600 MOL  38   MOL  C    3      0.000000       12.0112           0
     601 MOL  38   MOL  C    4      0.000000        1.0080           0
     602 MOL  38   MOL  C    4      0.000000        1.0080           0
     603 MOL  38   MOL  C    4      0.000000        1.0080           0
     604 MOL  38   MOL  C    4      0.000000        1.0080           0
     605 MOL  38   MOL  C    4      0.000000        1.0080           0
     606 MOL  38   MOL  C    4      0.000000        1.0080           0
     607 MOL  38   MOL  C    4      0.000000        1.0080           0
     608 MOL  38   MOL  C    4      0.000000        1.0080           0
     609 MOL  39   MOL  C    1      0.000000       12.0112           0
     610 MOL  39   MOL  C    1      0.000000       12.0112           0
     611 MOL  39   MOL  C    1      0.000000       12.0112           0
     612 MOL  39   MOL  C    1      0.000000       12.0112           0
     613 MOL  39   MOL  C    1      0.000000       12.0112           0
     614 MOL  39   MOL  C    1      0.000000       12.0112           0
     615 MOL  39   MOL  C    2      0.000000       12.0112           0
     616 MOL  39   MOL  C    3      0.000000       12.0112           0
     617 MOL  39   MOL  C    4      0.000000        1.0080           0
     618 MOL  39   MOL  C    4      0.000000        1.0080           0
     619 MOL  39   MOL  C    4      0.000000        1.0080           0
     620 MOL  39   MOL  C    4      0.000000        1.0080           0
     621 MOL  39   MOL  C    4      0.000000        1.0080           0
     622 MOL  39   MOL  C    4      0.000000        1.0080           0
     623 MOL  39   MOL  C    4      0.000000        1.0080           0
     624 MOL  39   MOL  C    4      0.000000        1.0080           0
     625 MOL  40   MOL  C    1      0.000000       12.0112           0
     626 MOL  40   MOL  C    1      0.000000       12.0112           0
     627 MOL  40   MOL  C    1      0.000000       12.0112           0
     628 MOL  40   MOL  C    1      0.000000       12.0112           0
     629 MOL  40   MOL  C    1      0.000000       12.0112           0
     630 MOL  40   MOL  C    1      0.000000       12.0112           0
     631 MOL  40   MOL  C    2      0.000000       12.0112           0
     632 MOL  40   MOL  C    3      0.000000       12.0112           0
     633 MOL  40   MOL  C    4      0.000000        1.0080           0
     634 MOL  40   MOL  C    4      0.000000        1.0080           0
     635 MOL  40   MOL  C    4      0.000000        1.0080           0
     636 MOL  40   MOL  C    4      0.000000        1.0080           0
     637 MOL  40   MOL  C    4      0.000000        1.0080           0
     638 MOL  40   MOL  C    4      0.000000        1.0080           0
     639 MOL  40   MOL  C    4      0.000000        1.0080           0
     640 MOL  40   MOL  C    4      0.000000        1.0080           0
     641 MOL  41   MOL  C    1      0.000000       12.0112           0
     642 MOL  41   MOL  C    1      0.000000       12.0112           0
     643 MOL  41   MOL  C    1      0.000000       12.0112           0
     644 MOL  41   MOL  C    1      0.000000       12.0112           0
     645 MOL  41   MOL  C    1      0.000000       12.0112           0
     646 MOL  41   MOL  C    1      0.000000       12.0112           0
     647 MOL  41   MOL  C    2      0.000000       12.0112           0
     648 MOL  41   MOL  C    3      0.000000       12.0112           0
     649 MOL  41   MOL  C    4      0.000000        1.0080           0
     650 MOL  41   MOL  C    4      0.000000        1.0080           0
     651 MOL  41   MOL  C    4      0.000000        1.0080           0
     652 MOL  41   MOL  C    4      0.000000        1.0080           0
     653 MOL  41   MOL  C    4      0.000000        1.0080           0
     654 MOL  41   MOL  C    4      0.000000        1.0080           0
     655 MOL  41   MOL  C    4      0.000000        1.0080           0
     656 MOL  41   MOL  C    4      0.000000        1.0080           0
     657 MOL  42   MOL  C    1      0.000000       12.0112           0
     658 MOL  42   MOL  C    1      0.000000       12.0112           0
     659 MOL  42   MOL  C    1      0.000000       12.0112           0
     660 MOL  42   MOL  C    1      0.000000       12.0112           0
     661 MOL  42   MOL  C    1      0.000000       12.0112           0
     662 MOL  42   MOL  C    1      0.000000       12.0112           0
     663 MOL  42   MOL  C    2      0.000000       12.0112           0
     664 MOL  42   MOL  C    3      0.000000       12.0112           0
     665 MOL  42   MOL  C    4      0.000000        1.0080           0
     666 MOL  42   MOL  C    4      0.000000        1.0080           0
     667 MOL  42   MOL  C    4      0.000000        1.0080           0
     668 MOL  42   MOL  C    4      0.000000        1.0080           0
     669 MOL  42   MOL  C    4      0.000000        1.0080           0
     670 MOL  42   MOL  C    4      0.000000        1.0080           0
     671 MOL  42   MOL  C    4      0.000000        1.0080           0
     672 MOL  42   MOL  C    4      0.000000        1.0080           0
     673 MOL  43   MOL  C    1      0.000000       12.0112           0
     674 MOL  43   MOL  C    1      0.000000       12.0112           0
     675 MOL  43   MOL  C    1      0.000000       12.0112           0
     676 MOL  43   MOL  C    1      0.000000       12.0112           0
     677 MOL  43   MOL  C    1      0.000000       12.0112           0
     678 MOL  43   MOL  C    1      0.000000       12.0112           0
     679 MOL  43   MOL  C    2      0.000000       12.0112           0
     680 MOL  43   MOL  C    3      0.000000       12.0112           0
     681 MOL  43   MOL  C    4      0.000000        1.0080           0
     682 MOL  43   MOL  C    4      0.000000        1.0080           0
     683 MOL  43   MOL  C    4      0.000000        1.0080           0
     684 MOL  43   MOL  C    4      0.000000        1.0080           0
     685 MOL  43   MOL  C    4      0.000000        1.0080           0
     686 MOL  43   MOL  C    4      0.000000        1.0080           0
     687 MOL  43   MOL  C    4      0.000000        1.0080           0
     688 MOL  43   MOL  C    4      0.000000        1.0080           0
     689 MOL  44   MOL  C    1      0.000000       12.0112           0
     690 MOL  44   MOL  C    1      0.000000       12.0112           0
     691 MOL  44   MOL  C    1      0.000000       12.0112           0
     692 MOL  44   MOL  C    1      0.000000       12.0112           0
     693 MOL  44   MOL  C    1      0.000000       12.0112           0
     694 MOL  44   MOL  C    1      0.000000       12.0112           0
     695 MOL  44   MOL  C    2      0.000000       12.0112           0
     696 MOL  44   MOL  C    3      0.000000       12.0112           0
     697 MOL  44   MOL  C    4      0.000000        1.0080           0
     698 MOL  44   MOL  C    4      0.000000        1.0080           0
     699 MOL  44   MOL  C    4      0.000000        1.0080           0
     700 MOL  44   MOL  C    4      0.000000        1.0080           0
     701 MOL  44   MOL  C    4      0.000000        1.0080           0
     702 MOL  44   MOL  C    4      0.000000        1.0080           0
     703 MOL  44   MOL  C    4      0.000000        1.0080           0
     704 MOL  44   MOL  C    4      0.000000        1.0080           0
     705 MOL  45   MOL  C    1      0.000000       12.0112           0
     706 MOL  45   MOL  C    1      0.000000       12.0112           0
     707 MOL  45   MOL  C    1      0.000000       12.0112           0
     708 MOL  45   MOL  C    1      0.000000       12.0112           0
     709 MOL  45   MOL  C    1      0.000000       12.0112           0
     710 MOL  45   MOL  C    1      0.000000       12.0112           0
     711 MOL  45   MOL  C    2      0.000000       12.0112           0
     712 MOL  45   MOL  C    3      0.000000       12.0112           0
     713 MOL  45   MOL  C    4      0.000000        1.0080           0
     714 MOL  45   MOL  C    4      0.000000        1.0080           0
     715 MOL  45   MOL  C    4      0.000000        1.0080           0
     716 MOL  45   MOL  C    4      0.000000        1.0080           0
     717 MOL  45   MOL  C    4      0.000000        1.0080           0
     718 MOL  45   MOL  C    4      0.000000        1.0080           0
     719 MOL  45   MOL  C    4      0.000000        1.0080           0
     720 MOL  45   MOL  C    4      0.000000        1.0080           0
     721 MOL  46   MOL  C    6      0.399100        1.0080           0
     722 MOL  46   MOL  C    5     -0.798200       15.9994           0
     723 MOL  46   MOL  C    6      0.399100        1.0080           0
     724 MOL  47   MOL  C    6      0.399100        1.0080           0
     725 MOL  47   MOL  C    5     -0.798200       15.9994           0
     726 MOL  47   MOL  C    6      0.399100        1.0080           0
     727 MOL  48   MOL  C    6      0.399100        1.0080           0
     728 MOL  48   MOL  C    5     -0.798200       15.9994           0
     729 MOL  48   MOL  C    6      0.399100        1.0080           0
     730 MOL  49   MOL  C    6      0.399100        1.0080           0
     731 MOL  49   MOL  C    5     -0.798200       15.9994           0
     732 MOL  49   MOL  C    6      0.399100        1.0080           0
     733 MOL  50   MOL  C    6      0.399100        1.0080           0
     734 MOL  50   MOL  C    5     -0.798200       15.9994           0
     735 MOL  50   MOL  C    6      0.399100        1.0080           0
     736 MOL  51   MOL  C    6      0.399100        1.0080           0
     737 MOL  51   MOL  C    5     -0.798200       15.9994           0
     738 MOL  51   MOL  C    6      0.399100        1.0080           0
     739 MOL  52   MOL  C    6      0.399100        1.0080           0
     740 MOL  52   MOL  C    5     -0.798200       15.9994           0
     741 MOL  52   MOL  C    6      0.399100        1.0080           0
     742 MOL  53   MOL  C    6      0.399100        1.0080           0
     743 MOL  53   MOL  C    5     -0.798200       15.9994           0
     744 MOL  53   MOL  C    6      0.399100        1.0080           0
     745 MOL  54   MOL  C    6      0.399100        1.0080           0
     746 MOL  54   MOL  C    5     -0.798200       15.9994           0
     747 MOL  54   MOL  C    6      0.399100        1.0080           0
     748 MOL  55   MOL  C    6      0.399100        1.0080           0
     749 MOL  55   MOL  C    5     -0.798200       15.9994           0
     750 MOL  55   MOL  C    6      0.399100        1.0080           0
     751 MOL  56   MOL  C    6      0.399100        1.0080           0
     752 MOL  56   MOL  C    5     -0.798200       15.9994           0
     753 MOL  56   MOL  C    6      0.399100        1.0080           0
     754 MOL  57   MOL  C    6      0.399100        1.0080           0
     755 MOL  57   MOL  C    5     -0.798200       15.9994           0
     756 MOL  57   MOL  C    6      0.399100        1.0080           0
     757 MOL  58   MOL  C    6      0.399100        1.0080           0
     758 MOL  58   MOL  C    5     -0.798200       15.9994           0
     759 MOL  58   MOL  C    6      0.399100        1.0080           0
     760 MOL  59   MOL  C    6      0.399100        1.0080           0
     761 MOL  59   MOL  C    5     -0.798200       15.9994           0
     762 MOL  59   MOL  C    6      0.399100        1.0080           0
     763 MOL  60   MOL  C    6      0.399100        1.0080           0
     764 MOL  60   MOL  C    5     -0.798200       15.9994           0
     765 MOL  60   MOL  C    6      0.399100        1.0080           0
     766 MOL  61   MOL  C    6      0.399100        1.0080           0
     767 MOL  61   MOL  C    5     -0.798200       15.9994           0
     768 MOL  61   MOL  C    6      0.399100        1.0080           0
     769 MOL  62   MOL  C    6      0.399100        1.0080           0
     770 MOL  62   MOL  C    5     -0.798200       15.9994           0
     771 MOL  62   MOL  C    6      0.399100        1.0080           0
     772 MOL  63   MOL  C    6      0.399100        1.0080           0
     773 MOL  63   MOL  C    5     -0.798200       15.9994           0
     774 MOL  63   MOL  C    6      0.399100        1.0080           0
     775 MOL  64   MOL  C    6      0.399100        1.0080           0
     776 MOL  64   MOL  C    5     -0.798200       15.9994           0
     777 MOL  64   MOL  C    6      0.399100        1.0080           0
     778 MOL  65   MOL  C    6      0.399100        1.0080           0
     779 MOL  65   MOL  C    5     -0.798200       15.9994           0
     780 MOL  65   MOL  C    6      0.399100        1.0080           0
     781 MOL  66   MOL  C    6      0.399100        1.0080           0
     782 MOL  66   MOL  C    5     -0.798200       15.9994           0
     783 MOL  66   MOL  C    6      0.399100        1.0080           0
     784 MOL  67   MOL  C    6      0.399100        1.0080           0
     785 MOL  67   MOL  C    5     -0.798200       15.9994           0
     786 MOL  67   MOL  C    6      0.399100        1.0080           0
     787 MOL  68   MOL  C    6      0.399100        1.0080           0
     788 MOL  68   MOL  C    5     -0.798200       15.9994           0
     789 MOL  68   MOL  C    6      0.399100        1.0080           0
     790 MOL  69   MOL  C    6      0.399100        1.0080           0
     791 MOL  69   MOL  C    5     -0.798200       15.9994           0
     792 MOL  69   MOL  C    6      0.399100        1.0080           0
     793 MOL  70   MOL  C    6      0.399100        1.0080           0
     794 MOL  70   MOL  C    5     -0.798200       15.9994           0
     795 MOL  70   MOL  C    6      0.399100        1.0080           0
     796 MOL  71   MOL  C    6      0.399100        1.0080           0
     797 MOL  71   MOL  C    5     -0.798200       15.9994           0
     798 MOL  71   MOL  C    6      0.399100        1.0080           0
     799 MOL  72   MOL  C    6      0.399100        1.0080           0
     800 MOL  72   MOL  C    5     -0.798200       15.9994           0
     801 MOL  72   MOL  C    6      0.399100        1.0080           0
     802 MOL  73   MOL  C    6      0.399100        1.0080           0
     803 MOL  73   MOL  C    5     -0.798200       15.9994           0
     804 MOL  73   MOL  C    6      0.399100        1.0080           0
     805 MOL  74   MOL  C    6      0.399100        1.0080           0
     806 MOL  74   MOL  C    5     -0.798200       15.9994           0
     807 MOL  74   MOL  C    6      0.399100        1.0080           0
     808 MOL  75   MOL  C    6      0.399100        1.0080           0
     809 MOL  75   MOL  C    5     -0.798200       15.9994           0
     810 MOL  75   MOL  C    6      0.399100        1.0080           0
     811 MOL  76   MOL  C    6      0.399100        1.0080           0
     812 MOL  76   MOL  C    5     -0.798200       15.9994           0
     813 MOL  76   MOL  C    6      0.399100        1.0080           0
     814 MOL  77   MOL  C    6      0.399100        1.0080           0
     815 MOL  77   MOL  C    5     -0.798200       15.9994           0
     816 MOL  77   MOL  C    6      0.399100        1.0080           0
     817 MOL  78   MOL  C    6      0.399100        1.0080           0
     818 MOL  78   MOL  C    5     -0.798200       15.9994           0
     819 MOL  78   MOL  C    6      0.399100        1.0080           0
     820 MOL  79   MOL  C    6      0.399100        1.0080           0
     821 MOL  79   MOL  C    5     -0.798200       15.9994           0
     822 MOL  79   MOL  C    6      0.399100        1.0080           0
     823 MOL  80   MOL  C    6      0.399100        1.0080           0
     824 MOL  80   MOL  C    5     -0.798200       15.9994           0
     825 MOL  80   MOL  C    6      0.399100        1.0080           0
     826 MOL  81   MOL  C    6      0.399100        1.0080           0
     827 MOL  81   MOL  C    5     -0.798200       15.9994           0
     828 MOL  81   MOL  C    6      0.399100        1.0080           0
     829 MOL  82   MOL  C    6      0.399100        1.0080           0
     830 MOL  82   MOL  C    5     -0.798200       15.9994           0
     831 MOL  82   MOL  C    6      0.399100        1.0080           0
     832 MOL  83   MOL  C    6      0.399100        1.0080           0
     833 MOL  83   MOL  C    5     -0.798200       15.9994           0
     834 MOL  83   MOL  C    6      0.399100        1.0080           0
     835 MOL  84   MOL  C    6      0.399100        1.0080           0
     836 MOL  84   MOL  C    5     -0.798200       15.9994           0
     837 MOL  84   MOL  C    6      0.399100        1.0080           0
     838 MOL  85   MOL  C    6      0.399100        1.0080           0
     839 MOL  85   MOL  C    5     -0.798200       15.9994           0
     840 MOL  85   MOL  C    6      0.399100        1.0080           0
     841 MOL  86   MOL  C    6      0.399100        1.0080           0
     842 MOL  86   MOL  C    5     -0.798200       15.9994           0
     843 MOL  86   MOL  C    6      0.399100        1.0080           0
     844 MOL  87   MOL  C    6      0.399100        1.0080           0
     845 MOL  87   MOL  C    5     -0.798200       15.9994           0
     846 MOL  87   MOL  C    6      0.399100        1.0080           0
     847 MOL  88   MOL  C    6      0.399100        1.0080           0
     848 MOL  88   MOL  C    5     -0.798200       15.9994           0
     849 MOL  88   MOL  C    6      0.399100        1.0080           0
     850 MOL  89   MOL  C    6      0.399100        1.0080           0
     851 MOL  89   MOL  C    5     -0.798200       15.9994           0
     852 MOL  89   MOL  C    6      0.399100        1.0080           0
     853 MOL  90   MOL  C    6      0.399100        1.0080           0
     854 MOL  90   MOL  C    5     -0.798200       15.9994           0
     855 MOL  90   MOL  C    6      0.399100        1.0080           0
     856 MOL  91   MOL  C    6      0.399100        1.0080           0
     857 MOL  91   MOL  C    5     -0.798200       15.9994           0
     858 MOL  91   MOL  C    6      0.399100        1.0080           0
     859 MOL  92   MOL  C    6      0.399100        1.0080           0
     860 MOL  92   MOL  C    5     -0.798200       15.9994           0
     861 MOL  92   MOL  C    6      0.399100        1.0080           0
     862 MOL  93   MOL  C    6      0.399100        1.0080           0
     863 MOL  93   MOL  C    5     -0.798200       15.9994           0
     864 MOL  93   MOL  C    6      0.399100        1.0080           0
     865 MOL  94   MOL  C    6      0.399100        1.0080           0
     866 MOL  94   MOL  C    5     -0.798200       15.9994           0
     867 MOL  94   MOL  C    6      0.399100        1.0080           0
     868 MOL  95   MOL  C    6      0.399100        1.0080           0
     869 MOL  95   MOL  C    5     -0.798200       15.9994           0
     870 MOL  95   MOL  C    6      0.399100        1.0080           0
     871 MOL  96   MOL  C    6      0.399100        1.0080           0
     872 MOL  96   MOL  C    5     -0.798200       15.9994           0
     873 MOL  96   MOL  C    6      0.399100        1.0080           0
     874 MOL  97   MOL  C    6      0.399100        1.0080           0
     875 MOL  97   MOL  C    5     -0.798200       15.9994           0
     876 MOL  97   MOL  C    6      0.399100        1.0080           0
     877 MOL  98   MOL  C    6      0.399100        1.0080           0
     878 MOL  98   MOL  C    5     -0.798200       15.9994           0
     879 MOL  98   MOL  C    6      0.399100        1.0080           0
     880 MOL  99   MOL  C    6      0.399100        1.0080           0
     881 MOL  99   MOL  C    5     -0.798200       15.9994           0
     882 MOL  99   MOL  C    6      0.399100        1.0080           0
     883 MOL  100  MOL  C    6      0.399100        1.0080           0
     884 MOL  100  MOL  C    5     -0.798200       15.9994           0
     885 MOL  100  MOL  C    6      0.399100        1.0080           0
     886 MOL  101  MOL  C    6      0.399100        1.0080           0
     887 MOL  101  MOL  C    5     -0.798200       15.9994           0
     888 MOL  101  MOL  C    6      0.399100        1.0080           0
     889 MOL  102  MOL  C    6      0.399100        1.0080           0
     890 MOL  102  MOL  C    5     -0.798200       15.9994           0
     891 MOL  102  MOL  C    6      0.399100        1.0080           0
     892 MOL  103  MOL  C    6      0.399100        1.0080           0
     893 MOL  103  MOL  C    5     -0.798200       15.9994           0
     894 MOL  103  MOL  C    6      0.399100        1.0080           0
     895 MOL  104  MOL  C    6      0.399100        1.0080           0
     896 MOL  104  MOL  C    5     -0.798200       15.9994           0
     897 MOL  104  MOL  C    6      0.399100        1.0080           0
     898 MOL  105  MOL  C    6      0.399100        1.0080           0
     899 MOL  105  MOL  C    5     -0.798200       15.9994           0
     900 MOL  105  MOL  C    6      0.399100        1.0080           0
     901 MOL  106  MOL  C    6      0.399100        1.0080           0
     902 MOL  106  MOL  C    5     -0.798200       15.9994           0
     903 MOL  106  MOL  C    6      0.399100        1.0080           0
     904 MOL  107  MOL  C    6      0.399100        1.0080           0
     905 MOL  107  MOL  C    5     -0.798200       15.9994           0
     906 MOL  107  MOL  C    6      0.399100        1.0080           0
     907 MOL  108  MOL  C    6      0.399100        1.0080           0
     908 MOL  108  MOL  C    5     -0.798200       15.9994           0
     909 MOL  108  MOL  C    6      0.399100        1.0080           0
     910 MOL  109  MOL  C    6      0.399100        1.0080           0
     911 MOL  109  MOL  C    5     -0.798200       15.9994           0
     912 MOL  109  MOL  C    6      0.399100        1.0080           0
     913 MOL  110  MOL  C    6      0.399100        1.0080           0
     914 MOL  110  MOL  C    5     -0.798200       15.9994           0
     915 MOL  110  MOL  C    6      0.399100        1.0080           0
     916 MOL  111  MOL  C    6      0.399100        1.0080           0
     917 MOL  111  MOL  C    5     -0.798200       15.9994           0
     918 MOL  111  MOL  C    6      0.399100        1.0080           0
     919 MOL  112  MOL  C    6      0.399100        1.0080           0
     920 MOL  112  MOL  C    5     -0.798200       15.9994           0
     921 MOL  112  MOL  C    6      0.399100        1.0080           0
     922 MOL  113  MOL  C    6      0.399100        1.0080           0
     923 MOL  113  MOL  C    5     -0.798200       15.9994           0
     924 MOL  113  MOL  C    6      0.399100        1.0080           0
     925 MOL  114  MOL  C    6      0.399100        1.0080           0
     926 MOL  114  MOL  C    5     -0.798200       15.9994           0
     927 MOL  114  MOL  C    6      0.399100        1.0080           0
     928 MOL  115  MOL  C    6      0.399100        1.0080           0
     929 MOL  115  MOL  C    5     -0.798200       15.9994           0
     930 MOL  115  MOL  C    6      0.399100        1.0080           0
     931 MOL  116  MOL  C    6      0.399100        1.0080           0
     932 MOL  116  MOL  C    5     -0.798200       15.9994           0
     933 MOL  116  MOL  C    6      0.399100        1.0080           0
     934 MOL  117  MOL  C    6      0.399100        1.0080           0
     935 MOL  117  MOL  C    5     -0.798200       15.9994           0
     936 MOL  117  MOL  C    6      0.399100        1.0080           0
     937 MOL  118  MOL  C    6      0.399100        1.0080           0
     938 MOL  118  MOL  C    5     -0.798200       15.9994           0
     939 MOL  118  MOL  C    6      0.399100        1.0080           0
     940 MOL  119  MOL  C    6      0.399100        1.0080           0
     941 MOL  119  MOL  C    5     -0.798200       15.9994           0
     942 MOL  119  MOL  C    6      0.399100        1.0080           0
     943 MOL  120  MOL  C    6      0.399100        1.0080           0
     944 MOL  120  MOL  C    5     -0.798200       15.9994           0
     945 MOL  120  MOL  C    6      0.399100        1.0080           0
     946 MOL  121  MOL  C    6      0.399100        1.0080           0
     947 MOL  121  MOL  C    5     -0.798200       15.9994           0
     948 MOL  121  MOL  C    6      0.399100        1.0080           0
     949 MOL  122  MOL  C    6      0.399100        1.0080           0
     950 MOL  122  MOL  C    5     -0.798200       15.9994           0
     951 MOL  122  MOL  C    6      0.399100        1.0080           0
     952 MOL  123  MOL  C    6      0.399100        1.0080           0
     953 MOL  123  MOL  C    5     -0.798200       15.9994           0
     954 MOL  123  MOL  C    6      0.399100        1.0080           0
     955 MOL  124  MOL  C    6      0.399100        1.0080           0
     956 MOL  124  MOL  C    5     -0.798200       15.9994           0
     957 MOL  124  MOL  C    6      0.399100        1.0080           0
     958 MOL  125  MOL  C    6      0.399100        1.0080           0
     959 MOL  125  MOL  C    5     -0.798200       15.9994           0
     960 MOL  125  MOL  C    6      0.399100        1.0080           0
     961 MOL  126  MOL  C    6      0.399100        1.0080           0
     962 MOL  126  MOL  C    5     -0.798200       15.9994           0
     963 MOL  126  MOL  C    6      0.399100        1.0080           0
     964 MOL  127  MOL  C    6      0.399100        1.0080           0
     965 MOL  127  MOL  C    5     -0.798200       15.9994           0
     966 MOL  127  MOL  C    6      0.399100        1.0080           0
     967 MOL  128  MOL  C    6      0.399100        1.0080           0
     968 MOL  128  MOL  C    5     -0.798200       15.9994           0
     969 MOL  128  MOL  C    6      0.399100        1.0080           0
     970 MOL  129  MOL  C    6      0.399100        1.0080           0
     971 MOL  129  MOL  C    5     -0.798200       15.9994           0
     972 MOL  129  MOL  C    6      0.399100        1.0080           0
     973 MOL  130  MOL  C    6      0.399100        1.0080           0
     974 MOL  130  MOL  C    5     -0.798200       15.9994           0
     975 MOL  130  MOL  C    6      0.399100        1.0080           0
     976 MOL  131  MOL  C    6      0.399100        1.0080           0
     977 MOL  131  MOL  C    5     -0.798200       15.9994           0
     978 MOL  131  MOL  C    6      0.399100        1.0080           0
     979 MOL  132  MOL  C    6      0.399100        1.0080           0
     980 MOL  132  MOL  C    5     -0.798200       15.9994           0
     981 MOL  132  MOL  C    6      0.399100        1.0080           0
     982 MOL  133  MOL  C    6      0.399100        1.0080           0
     983 MOL  133  MOL  C    5     -0.798200       15.9994           0
     984 MOL  133  MOL  C    6      0.399100        1.0080           0
     985 MOL  134  MOL  C    6      0.399100        1.0080           0
     986 MOL  134  MOL  C    5     -0.798200       15.9994           0
     987 MOL  134  MOL  C    6      0.399100        1.0080           0
     988 MOL  135  MOL  C    6      0.399100        1.0080           0
     989 MOL  135  MOL  C    5     -0.798200       15.9994           0
     990 MOL  135  MOL  C    6      0.399100        1.0080           0
     991 MOL  136  MOL  C    6      0.399100        1.0080           0
     992 MOL  136  MOL  C    5     -0.798200       15.9994           0
     993 MOL  136  MOL  C    6      0.399100        1.0080           0
     994 MOL  137  MOL  C    6      0.399100        1.0080           0
     995 MOL  137  MOL  C    5     -0.798200       15.9994           0
     996 MOL  137  MOL  C    6      0.399100        1.0080           0
     997 MOL  138  MOL  C    6      0.399100        1.0080           0
     998 MOL  138  MOL  C    5     -0.798200       15.9994           0
     999 MOL  138  MOL  C    6      0.399100        1.0080           0
    1000 MOL  139  MOL  C    6      0.399100        1.0080           0
    1001 MOL  139  MOL  C    5     -0.798200       15.9994           0
    1002 MOL  139  MOL  C    6      0.399100        1.0080           0
    1003 MOL  140  MOL  C    6      0.399100        1.0080           0
    1004 MOL  140  MOL  C    5     -0.798200       15.9994           0
    1005 MOL  140  MOL  C    6      0.399100        1.0080           0
    1006 MOL  141  MOL  C    6      0.399100        1.0080           0
    1007 MOL  141  MOL  C    5     -0.798200       15.9994           0
    1008 MOL  141  MOL  C    6      0.399100        1.0080           0
    1009 MOL  142  MOL  C    6      0.399100        1.0080           0
    1010 MOL  142  MOL  C    5     -0.798200       15.9994           0
    1011 MOL  142  MOL  C    6      0.399100        1.0080           0
    1012 MOL  143  MOL  C    6      0.399100        1.0080           0
    1013 MOL  143  MOL  C    5     -0.798200       15.9994           0
    1014 MOL  143  MOL  C    6      0.399100        1.0080           0
    1015 MOL  144  MOL  C    6      0.399100        1.0080           0
    1016 MOL  144  MOL  C    5     -0.798200       15.9994           0
    1017 MOL  144  MOL  C    6      0.399100        1.0080           0
    1018 MOL  145  MOL  C    6      0.399100        1.0080           0
    1019 MOL  145  MOL  C    5     -0.798200       15.9994           0
    1020 MOL  145  MOL  C    6      0.399100        1.0080           0
    1021 MOL  146  MOL  C    6      0.399100        1.0080           0
    1022 MOL  146  MOL  C    5     -0.798200       15.9994           0
    1023 MOL  146  MOL  C    6      0.399100        1.0080           0
    1024 MOL  147  MOL  C    6      0.399100        1.0080           0
    1025 MOL  147  MOL  C    5     -0.798200       15.9994           0
    1026 MOL  147  MOL  C    6      0.399100        1.0080           0
    1027 MOL  148  MOL  C    6      0.399100        1.0080           0
    1028 MOL  148  MOL  C    5     -0.798200       15.9994           0
    1029 MOL  148  MOL  C    6      0.399100        1.0080           0
    1030 MOL  149  MOL  C    6      0.399100        1.0080           0
    1031 MOL  149  MOL  C    5     -0.798200       15.9994           0
    1032 MOL  149  MOL  C    6      0.399100        1.0080           0
    1033 MOL  150  MOL  C    6      0.399100        1.0080           0
    1034 MOL  150  MOL  C    5     -0.798200       15.9994           0
    1035 MOL  150  MOL  C    6      0.399100        1.0080           0
    1036 MOL  151  MOL  C    6      0.399100        1.0080           0
    1037 MOL  151  MOL  C    5     -0.798200       15.9994           0
    1038 MOL  151  MOL  C    6      0.399100        1.0080           0
    1039 MOL  152  MOL  C    6      0.399100        1.0080           0
    1040 MOL  152  MOL  C    5     -0.798200       15.9994           0
    1041 MOL  152  MOL  C    6      0.399100        1.0080           0
    1042 MOL  153  MOL  C    6      0.399100        1.0080           0
    1043 MOL  153  MOL  C    5     -0.798200       15.9994           0
    1044 MOL  153  MOL  C    6      0.399100        1.0080           0
    1045 MOL  154  MOL  C    6      0.399100        1.0080           0
    1046 MOL  154  MOL  C    5     -0.798200       15.9994           0
    1047 MOL  154  MOL  C    6      0.399100        1.0080           0
    1048 MOL  155  MOL  C    6      0.399100        1.0080           0
    1049 MOL  155  MOL  C    5     -0.798200       15.9994           0
    1050 MOL  155  MOL  C    6      0.399100        1.0080           0
    1051 MOL  156  MOL  C    6      0.399100        1.0080           0
    1052 MOL  156  MOL  C    5     -0.798200       15.9994           0
    1053 MOL  156  MOL  C    6      0.399100        1.0080           0
    1054 MOL  157  MOL  C    6      0.399100        1.0080           0
    1055 MOL  157  MOL  C    5     -0.798200       15.9994           0
    1056 MOL  157  MOL  C    6      0.399100        1.0080           0
    1057 MOL  158  MOL  C    6      0.399100        1.0080           0
    1058 MOL  158  MOL  C    5     -0.798200       15.9994           0
    1059 MOL  158  MOL  C    6      0.399100        1.0080           0
    1060 MOL  159  MOL  C    6      0.399100        1.0080           0
    1061 MOL  159  MOL  C    5     -0.798200       15.9994           0
    1062 MOL  159  MOL  C    6      0.399100        1.0080           0
    1063 MOL  160  MOL  C    6      0.399100        1.0080           0
    1064 MOL  160  MOL  C    5     -0.798200       15.9994           0
    1065 MOL  160  MOL  C    6      0.399100        1.0080           0
    1066 MOL  161  MOL  C    6      0.399100        1.0080           0
    1067 MOL  161  MOL  C    5     -0.798200       15.9994           0
    1068 MOL  161  MOL  C    6      0.399100        1.0080           0
    1069 MOL  162  MOL  C    6      0.399100        1.0080           0
    1070 MOL  162  MOL  C    5     -0.798200       15.9994           0
    1071 MOL  162  MOL  C    6      0.399100        1.0080           0
    1072 MOL  163  MOL  C    6      0.399100        1.0080           0
    1073 MOL  163  MOL  C    5     -0.798200       15.9994           0
    1074 MOL  163  MOL  C    6      0.399100        1.0080           0
    1075 MOL  164  MOL  C    6      0.399100        1.0080           0
    1076 MOL  164  MOL  C    5     -0.798200       15.9994           0
    1077 MOL  164  MOL  C    6      0.399100        1.0080           0
    1078 MOL  165  MOL  C    6      0.399100        1.0080           0
    1079 MOL  165  MOL  C    5     -0.798200       15.9994           0
    1080 MOL  165  MOL  C    6      0.399100        1.0080           0
    1081 MOL  166  MOL  C    6      0.399100        1.0080           0
    1082 MOL  166  MOL  C    5     -0.798200       15.9994           0
    1083 MOL  166  MOL  C    6      0.399100        1.0080           0
    1084 MOL  167  MOL  C    6      0.399100        1.0080           0
    1085 MOL  167  MOL  C    5     -0.798200       15.9994           0
    1086 MOL  167  MOL  C    6      0.399100        1.0080           0
    1087 MOL  168  MOL  C    6      0.399100        1.0080           0
    1088 MOL  168  MOL  C    5     -0.798200       15.9994           0
    1089 MOL  168  MOL  C    6      0.399100        1.0080           0
    1090 MOL  169  MOL  C    6      0.399100        1.0080           0
    1091 MOL  169  MOL  C    5     -0.798200       15.9994           0
    1092 MOL  169  MOL  C    6      0.399100        1.0080           0
    1093 MOL  170  MOL  C    6      0.399100        1.0080           0
    1094 MOL  170  MOL  C    5     -0.798200       15.9994           0
    1095 MOL  170  MOL  C    6      0.399100        1.0080           0
    1096 MOL  171  MOL  C    6      0.399100        1.0080           0
    1097 MOL  171  MOL  C    5     -0.798200       15.9994           0
    1098 MOL  171  MOL  C    6      0.399100        1.0080           0
    1099 MOL  172  MOL  C    6      0.399100        1.0080           0
    1100 MOL  172  MOL  C    5     -0.798200       15.9994           0
    1101 MOL  172  MOL  C    6      0.399100        1.0080           0
    1102 MOL  173  MOL  C    6      0.399100        1.0080           0
    1103 MOL  173  MOL  C    5     -0.798200       15.9994           0
    1104 MOL  173  MOL  C    6      0.399100        1.0080           0
    1105 MOL  174  MOL  C    6      0.399100        1.0080           0
    1106 MOL  174  MOL  C    5     -0.798200       15.9994           0
    1107 MOL  174  MOL  C    6      0.399100        1.0080           0
    1108 MOL  175  MOL  C    6      0.399100        1.0080           0
    1109 MOL  175  MOL  C    5     -0.798200       15.9994           0
    1110 MOL  175  MOL  C    6      0.399100        1.0080           0
    1111 MOL  176  MOL  C    6      0.399100        1.0080           0
    1112 MOL  176  MOL  C    5     -0.798200       15.9994           0
    1113 MOL  176  MOL  C    6      0.399100        1.0080           0
    1114 MOL  177  MOL  C    6      0.399100        1.0080           0
    1115 MOL  177  MOL  C    5     -0.798200       15.9994           0
    1116 MOL  177  MOL  C    6      0.399100        1.0080           0
    1117 MOL  178  MOL  C    6      0.399100        1.0080           0
    1118 MOL  178  MOL  C    5     -0.798200       15.9994           0
    1119 MOL  178  MOL  C    6      0.399100        1.0080           0
    1120 MOL  179  MOL  C    6      0.399100        1.0080           0
    1121 MOL  179  MOL  C    5     -0.798200       15.9994           0
    1122 MOL  179  MOL  C    6      0.399100        1.0080           0
    1123 MOL  180  MOL  C    6      0.399100        1.0080           0
    1124 MOL  180  MOL  C    5     -0.798200       15.9994           0
    1125 MOL  180  MOL  C    6      0.399100        1.0080           0
    1126 MOL  181  MOL  C    6      0.399100        1.0080           0
    1127 MOL  181  MOL  C    5     -0.798200       15.9994           0
    1128 MOL  181  MOL  C    6      0.399100        1.0080           0
    1129 MOL  182  MOL  C    6      0.399100        1.0080           0
    1130 MOL  182  MOL  C    5     -0.798200       15.9994           0
    1131 MOL  182  MOL  C    6      0.399100        1.0080           0
    1132 MOL  183  MOL  C    6      0.399100        1.0080           0
    1133 MOL  183  MOL  C    5     -0.798200       15.9994           0
    1134 MOL  183  MOL  C    6      0.399100        1.0080           0
    1135 MOL  184  MOL  C    6      0.399100        1.0080           0
    1136 MOL  184  MOL  C    5     -0.798200       15.9994           0
    1137 MOL  184  MOL  C    6      0.399100        1.0080           0
    1138 MOL  185  MOL  C    6      0.399100        1.0080           0
    1139 MOL  185  MOL  C    5     -0.798200       15.9994           0
    1140 MOL  185  MOL  C    6      0.399100        1.0080           0
    1141 MOL  186  MOL  C    6      0.399100        1.0080           0
    1142 MOL  186  MOL  C    5     -0.798200       15.9994           0
    1143 MOL  186  MOL  C    6      0.399100        1.0080           0
    1144 MOL  187  MOL  C    6      0.399100        1.0080           0
    1145 MOL  187  MOL  C    5     -0.798200       15.9994           0
    1146 MOL  187  MOL  C    6      0.399100        1.0080           0
    1147 MOL  188  MOL  C    6      0.399100        1.0080           0
    1148 MOL  188  MOL  C    5     -0.798200       15.9994           0
    1149 MOL  188  MOL  C    6      0.399100        1.0080           0
    1150 MOL  189  MOL  C    6      0.399100        1.0080           0
    1151 MOL  189  MOL  C    5     -0.798200       15.9994           0
    1152 MOL  189  MOL  C    6      0.399100        1.0080           0
    1153 MOL  190  MOL  C    6      0.399100        1.0080           0
    1154 MOL  190  MOL  C    5     -0.798200       15.9994           0
    1155 MOL  190  MOL  C    6      0.399100        1.0080           0
    1156 MOL  191  MOL  C    6      0.399100        1.0080           0
    1157 MOL  191  MOL  C    5     -0.798200       15.9994           0
    1158 MOL  191  MOL  C    6      0.399100        1.0080           0
    1159 MOL  192  MOL  C    6      0.399100        1.0080           0
    1160 MOL  192  MOL  C    5     -0.798200       15.9994           0
    1161 MOL  192  MOL  C    6      0.399100        1.0080           0
    1162 MOL  193  MOL  C    6      0.399100        1.0080           0
    1163 MOL  193  MOL  C    5     -0.798200       15.9994           0
    1164 MOL  193  MOL  C    6      0.399100        1.0080           0
    1165 MOL  194  MOL  C    6      0.399100        1.0080           0
    1166 MOL  194  MOL  C    5     -0.798200       15.9994           0
    1167 MOL  194  MOL  C    6      0.399100        1.0080           0
    1168 MOL  195  MOL  C    6      0.399100        1.0080           0
    1169 MOL  195  MOL  C    5     -0.798200       15.9994           0
    1170 MOL  195  MOL  C    6      0.399100        1.0080           0

    1020 !NBOND: bonds
       1       2       3       4       4       5       5       6
       2       3       1       6       7       3       7       8
       1       9       2      10       4      11       5      12
       6      13       7      14       8      15       8      16
      17      18      19      20      20      21      21      22
      18      19      17      22      23      19      23      24
      17      25      18      26      20      27      21      28
      22      29      23      30      24      31      24      32
      33      34      35      36      36      37      37      38
      34      35      33      38      39      35      39      40
      33      41      34      42      36      43      37      44
      38      45      39      46      40      47      40      48
      49      50      51      52      52      53      53      54
      50      51      49      54      55      51      55      56
      49      57      50      58      52      59      53      60
      54      61      55      62      56      63      56      64
      65      66      67      68      68      69      69      70
      66      67      65      70      71      67      71      72
      65      73      66      74      68      75      69      76
      70      77      71      78      72      79      72      80
      81      82      83      84      84      85      85      86
      82      83      81      86      87      83      87      88
      81      89      82      90      84      91      85      92
      86      93      87      94      88      95      88      96
      97      98      99     100     100     101     101     102
      98      99      97     102     103      99     103     104
      97     105      98     106     100     107     101     108
     102     109     103     110     104     111     104     112
     113     114     115     116     116     117     117     118
     114     115     113     118     119     115     119     120
     113     121     114     122     116     123     117     124
     118     125     119     126     120     127     120     128
     129     130     131     132     132     133     133     134
     130     131     129     134     135     131     135     136
     129     137     130     138     132     139     133     140
     134     141     135     142     136     143     136     144
     145     146     147     148     148     149     149     150
     146     147     145     150     151     147     151     152
     145     153     146     154     148     155     149     156
     150     157     151     158     152     159     152     160
     161     162     163     164     164     165     165     166
     162     163     161     166     167     163     167     168
     161     169     162     170     164     171     165     172
     166     173     167     174     168     175     168     176
     177     178     179     180     180     181     181     182
     178     179     177     182     183     179     183     184
     177     185     178     186     180     187     181     188
     182     189     183     190     184     191     184     192
     193     194     195     196     196     197     197     198
     194     195     193     198     199     195     199     200
     193     201     194     202     196     203     197     204
     198     205     199     206     200     207     200     208
     209     210     211     212     212     213     213     214
     210     211     209     214     215     211     215     216
     209     217     210     218     212     219     213     220
     214     221     215     222     216     223     216     224
     225     226     227     228     228     229     229     230
     226     227     225     230     231     227     231     232
     225     233     226     234     228     235     229     236
     230     237     231     238     232     239     232     240
     241     242     243     244     244     245     245     246
     242     243     241     246     247     243     247     248
     241     249     242     250     244     251     245     252
     246     253     247     254     248     255     248     256
     257     258     259     260     260     261     261     262
     258     259     257     262     263     259     263     264
     257     265     258     266     260     267     261     268
     262     269     263     270     264     271     264     272
     273     274     275     276     276     277     277     278
     274     275     273     278     279     275     279     280
     273     281     274     282     276     283     277     284
     278     285     279     286     280     287     280     288
     289     290     291     292     292     293     293     294
     290     291     289     294     295     291     295     296
     289     297     290     298     292     299     293     300
     294     301     295     302     296     303     296     304
     305     306     307     308     308     309     309     310
     306     307     305     310     311     307     311     312
     305     313     306     314     308     315     309     316
     310     317     311     318     312     319     312     320
     321     322     323     324     324     325     325     326
     322     323     321     326     327     323     327     328
     321     329     322     330     324     331     325     332
     326     333     327     334     328     335     328     336
     337     338     339     340     340     341     341     342
     338     339     337     342     343     339     343     344
     337     345     338     346     340     347     341     348
     342     349     343     350     344     351     344     352
     353     354     355     356     356     357     357     358
     354     355     353     358     359     355     359     360
     353     361     354     362     356     363     357     364
     358     365     359     366     360     367     360     368
     369     370     371     372     372     373     373     374
     370     371     369     374     375     371     375     376
     369     377     370     378     372     379     373     380
     374     381     375     382     376     383     376     384
     385     386     387     388     388     389     389     390
     386     387     385     390     391     387     391     392
     385     393     386     394     388     395     389     396
     390     397     391     398     392     399     392     400
     401     402     403     404     404     405     405     406
     402     403     401     406     407     403     407     408
     401     409     402     410     404     411     405     412
     406     413     407     414     408     415     408     416
     417     418     419     420     420     421     421     422
     418     419     417     422     423     419     423     424
     417     425     418     426     420     427     421     428
     422     429     423     430     424     431     424     432
     433     434     435     436     436     437     437     438
     434     435     433     438     439     435     439     440
     433     441     434     442     436     443     437     444
     438     445     439     446     440     447     440     448
     449     450     451     452     452     453     453     454
     450     451     449     454     455     451     455     456
     449     457     450     458     452     459     453     460
     454     461     455     462     456     463     456     464
     465     466     467     468     468     469     469     470
     466     467     465     470     471     467     471     472
     465     473     466     474     468     475     469     476
     470     477     471     478     472     479     472     480
     481     482     483     484     484     485     485     486
     482     483     481     486     487     483     487     488
     481     489     482     490     484     491     485     492
     486     493     487     494     488     495     488     496
     497     498     499     500     500     501     501     502
     498     499     497     502     503     499     503     504
     497     505     498     506     500     507     501     508
     502     509     503     510     504     511     504     512
     513     514     515     516     516     517     517     518
     514     515     513     518     519     515     519     520
     513     521     514     522     516     523     517     524
     518     525     519     526     520     527     520     528
     529     530     531     532     532     533     533     534
     530     531     529     534     535     531     535     536
     529     537     530     538     532     539     533     540
     534     541     535     542     536     543     536     544
     545     546     547     548     548     549     549     550
     546     547     545     550     551     547     551     552
     545     553     546     554     548     555     549     556
     550     557     551     558     552     559     552     560
     561     562     563     564     564     565     565     566
     562     563     561     566     567     563     567     568
     561     569     562     570     564     571     565     572
     566     573     567     574     568     575     568     576
     577     578     579     580     580     581     581     582
     578     579     577     582     583     579     583     584
     577     585     578     586     580     587     581     588
     582     589     583     590     584     591     584     592
     593     594     595     596     596     597     597     598
     594     595     593     598     599     595     599     600
     593     601     594     602     596     603     597     604
     598     605     599     606     600     607     600     608
     609     610     611     612     612     613     613     614
     610     611     609     614     615     611     615     616
     609     617     610     618     612     619     613     620
     614     621     615     622     616     623     616     624
     625     626     627     628     628     629     629     630
     626     627     625     630     631     627     631     632
     625     633     626     634     628     635     629     636
     630     637     631     638     632     639     632     640
     641     642     643     644     644     645     645     646
     642     643     641     646     647     643     647     648
     641     649     642     650     644     651     645     652
     646     653     647     654     648     655     648     656
     657     658     659     660     660     661     661     662
     658     659     657     662     663     659     663     664
     657     665     658     666     660     667     661     668
     662     669     663     670     664     671     664     672
     673     674     675     676     676     677     677     678
     674     675     673     678     679     675     679     680
     673     681     674     682     676     683     677     684
     678     685     679     686     680     687     680     688
     689     690     691     692     692     693     693     694
     690     691     689     694     695     691     695     696
     689     697     690     698     692     699     693     700
     694     701     695     702     696     703     696     704
     705     706     707     708     708     709     709     710
     706     707     705     710     711     707     711     712
     705     713     706     714     708     715     709     716
     710     717     711     718     712     719     712     720
     721     722     723     722     724     725     726     725
     727     728     729     728     730     731     732     731
     733     734     735     734     736     737     738     737
     739     740     741     740     742     743     744     743
     745     746     747     746     748     749     750     749
     751     752     753     752     754     755     756     755
     757     758     759     758     760     761     762     761
     763     764     765     764     766     767     768     767
     769     770     771     770     772     773     774     773
     775     776     777     776     778     779     780     779
     781     782     783     782     784     785     786     785
     787     788     789     788     790     791     792     791
     793     794     795     794     796     797     798     797
     799     800     801     800     802     803     804     803
     805     806     807     806     808     809     810     809
     811     812     813     812     814     815     816     815
     817     818     819     818     820     821     822     821
     823     824     825     824     826     827     828     827
     829     830     831     830     832     833     834     833
     835     836     837     836     838     839     840     839
     841     842     843     842     844     845     846     845
     847     848     849     848     850     851     852     851
     853     854     855     854     856     857     858     857
     859     860     861     860     862     863     864     863
     865     866     867     866     868     869     870     869
     871     872     873     872     874     875     876     875
     877     878     879     878     880     881     882     881
     883     884     885     884     886     887     888     887
     889     890     891     890     892     893     894     893
     895     896     897     896     898     899     900     899
     901     902     903     902     904     905     906     905
     907     908     909     908     910     911     912     911
     913     914     915     914     916     917     918     917
     919     920     921     920     922     923     924     923
     925     926     927     926     928     929     930     929
     931     932     933     932     934     935     936     935
     937     938     939     938     940     941     942     941
     943     944     945     944     946     947     948     947
     949     950     951     950     952     953     954     953
     955     956     957     956     958     959     960     959
     961     962     963     962     964     965     966     965
     967     968     969     968     970     971     972     971
     973     974     975     974     976     977     978     977
     979     980     981     980     982     983     984     983
     985     986     987     986     988     989     990     989
     991     992     993     992     994     995     996     995
     997     998     999     998    1000    1001    1002    1001
    1003    1004    1005    1004    1006    1007    1008    1007
    1009    1010    1011    1010    1012    1013    1014    1013
    1015    1016    1017    1016    1018    1019    1020    1019
    1021    1022    1023    1022    1024    1025    1026    1025
    1027    1028    1029    1028    1030    1031    1032    1031
    1033    1034    1035    1034    1036    1037    1038    1037
    1039    1040    1041    1040    1042    1043    1044    1043
    1045    1046    1047    1046    1048    1049    1050    1049
    1051    1052    1053    1052    1054    1055    1056    1055
    1057    1058    1059    1058    1060    1061    1062    1061
    1063    1064    1065    1064    1066    1067    1068    1067
    1069    1070    1071    1070    1072    1073    1074    1073
    1075    1076    1077    1076    1078    1079    1080    1079
    1081    1082    1083    1082    1084    1085    1086    1085
    1087    1088    1089    1088    1090    1091    1092    1091
    1093    1094    1095    1094    1096    1097    1098    1097
    1099    1100    1101    1100    1102    1103    1104    1103
    1105    1106    1107    1106    1108    1109    1110    1109
    1111    1112    1113    1112    1114    1115    1116    1115
    1117    1118    1119    1118    1120    1121    1122    1121
    1123    1124    1125    1124    1126    1127    1128    1127
    1129    1130    1131    1130    1132    1133    1134    1133
    1135    1136    1137    1136    1138    1139    1140    1139
    1141    1142    1143    1142    1144    1145    1146    1145
    1147    1148    1149    1148    1150    1151    1152    1151
    1153    1154    1155    1154    1156    1157    1158    1157
    1159    1160    1161    1160    1162    1163    1164    1163
    1165    1166    1167    1166    1168    1169    1170    1169
