PSF

       3 !TITLE
 REMARKS PIM-1 monomers, good alignment
 REMARKS Generated with Polymatic
 REMARKS To be used with coordinates file in VMD

      70 !NATOM
       1 MOL  1    MOL  CA0  4      0.000000       12.0110           0
       2 MOL  1    MOL  CA0  4      0.000000       12.0110           0
       3 MOL  1    MOL  CH0  5      0.000000       12.0110           0
       4 MOL  1    MOL  CH2  6      0.000000       14.0269           0
       5 MOL  1    MOL  CH3  7      0.000000       15.0348           0
       6 MOL  1    MOL  CH0  5      0.000000       12.0110           0
       7 MOL  1    MOL  CH2  6      0.000000       14.0269           0
       8 MOL  1    MOL  CH0  5      0.000000       12.0110           0
       9 MOL  1    MOL  CA0  4      0.000000       12.0110           0
      10 MOL  1    MOL  CA0  4      0.000000       12.0110           0
      11 MOL  1    MOL  CA1  3      0.000000       13.0189           0
      12 MOL  1    MOL  CS0  2      0.000000       12.0110           0
      13 MOL  1    MOL  CS0  2      0.000000       12.0110           0
      14 MOL  1    MOL  CA1  3      0.000000       13.0189           0
      15 MOL  1    MOL  OA0  1      0.000000       15.9994           0
      16 MOL  1    MOL  OA0  1      0.000000       15.9994           0
      17 MOL  1    MOL  CH3  7      0.000000       15.0348           0
      18 MOL  1    MOL  CH3  7      0.000000       15.0348           0
      19 MOL  1    MOL  CS0  2      0.000000       12.0110           0
      20 MOL  1    MOL  CS0  2      0.000000       12.0110           0
      21 MOL  1    MOL  CA0  4      0.000000       12.0110           0
      22 MOL  1    MOL  CL0  9      0.000000       12.0110           0
      23 MOL  1    MOL  NL0  10     0.000000       14.0067           0
      24 MOL  1    MOL  LOA0 11    -0.300000       15.9994           0
      25 MOL  1    MOL  CS0  2      0.000000       12.0110           0
      26 MOL  1    MOL  LOA0 11    -0.300000       15.9994           0
      27 MOL  1    MOL  CA1  3      0.000000       13.0189           0
      28 MOL  1    MOL  CS0  2      0.000000       12.0110           0
      29 MOL  1    MOL  CS0  2      0.000000       12.0110           0
      30 MOL  1    MOL  CA0  4      0.000000       12.0110           0
      31 MOL  1    MOL  CL0  9      0.000000       12.0110           0
      32 MOL  1    MOL  NL0  10     0.000000       14.0067           0
      33 MOL  1    MOL  CS0  2      0.000000       12.0110           0
      34 MOL  1    MOL  CA1  3      0.000000       13.0189           0
      35 MOL  1    MOL  CH3  7      0.000000       15.0348           0
      36 MOL  1    MOL  CA0  4      0.000000       12.0110           0
      37 MOL  1    MOL  CA0  4      0.000000       12.0110           0
      38 MOL  1    MOL  CH0  5      0.000000       12.0110           0
      39 MOL  1    MOL  CH2  6      0.000000       14.0269           0
      40 MOL  1    MOL  CH3  7      0.000000       15.0348           0
      41 MOL  1    MOL  CH0  5      0.000000       12.0110           0
      42 MOL  1    MOL  CH2  6      0.000000       14.0269           0
      43 MOL  1    MOL  CH0  5      0.000000       12.0110           0
      44 MOL  1    MOL  CA0  4      0.000000       12.0110           0
      45 MOL  1    MOL  CA0  4      0.000000       12.0110           0
      46 MOL  1    MOL  CA1  3      0.000000       13.0189           0
      47 MOL  1    MOL  CS0  2      0.000000       12.0110           0
      48 MOL  1    MOL  CS0  2      0.000000       12.0110           0
      49 MOL  1    MOL  CA1  3      0.000000       13.0189           0
      50 MOL  1    MOL  OA0  1      0.000000       15.9994           0
      51 MOL  1    MOL  OA0  1      0.000000       15.9994           0
      52 MOL  1    MOL  CH3  7      0.000000       15.0348           0
      53 MOL  1    MOL  CH3  7      0.000000       15.0348           0
      54 MOL  1    MOL  CS0  2      0.000000       12.0110           0
      55 MOL  1    MOL  CS0  2      0.000000       12.0110           0
      56 MOL  1    MOL  CA0  4      0.000000       12.0110           0
      57 MOL  1    MOL  CL0  9      0.000000       12.0110           0
      58 MOL  1    MOL  NL0  10     0.000000       14.0067           0
      59 MOL  1    MOL  OA0  1      0.000000       15.9994           0
      60 MOL  1    MOL  CS0  2      0.000000       12.0110           0
      61 MOL  1    MOL  OA0  1      0.000000       15.9994           0
      62 MOL  1    MOL  CA1  3      0.000000       13.0189           0
      63 MOL  1    MOL  LCS0 8      0.300000       12.0110           0
      64 MOL  1    MOL  LCS0 8      0.300000       12.0110           0
      65 MOL  1    MOL  CA0  4      0.000000       12.0110           0
      66 MOL  1    MOL  CL0  9      0.000000       12.0110           0
      67 MOL  1    MOL  NL0  10     0.000000       14.0067           0
      68 MOL  1    MOL  CS0  2      0.000000       12.0110           0
      69 MOL  1    MOL  CA1  3      0.000000       13.0189           0
      70 MOL  1    MOL  CH3  7      0.000000       15.0348           0

      82 !NBOND: bonds
       1       2       1       6       2       3       4       3
       3       5       4       6       7       6      10       6
       7       8       9       8       8      17       8      18
       9      10       9      14      10      11      12      11
      12      13      12      16      13      14      13      15
      20      15      19      16      19      20      20      21
      21      22      22      23       2      34       3      35
      33      24      25      26      25      27       1      27
      28      29      29      30      30      31      31      32
      28      21      19      30      33      34      25      33
      36      37      36      41      37      38      39      38
      38      40      39      41      42      41      45      41
      42      43      44      43      43      52      43      53
      44      45      44      49      45      46      47      46
      47      48      47      51      48      49      48      50
      55      50      54      51      54      55      55      56
      56      57      57      58      37      69      38      70
      68      59      60      61      60      62      36      62
      63      64      64      65      65      66      66      67
      63      56      54      65      68      69      60      68
      29      61      28      59
